<?xml version="1.0" encoding="ISO-8859-1"?>
<modeling>
 <generator>
  <i name="program" type="string">vasp </i>
  <i name="version" type="string">5.4.4.18Apr17-6-g9f103f2a35  </i>
  <i name="subversion" type="string">(build Mar 04 2021 17:17:33) complex            parallel </i>
  <i name="platform" type="string">IFC91_ompi </i>
  <i name="date" type="string">2023 03 11 </i>
  <i name="time" type="string">07:16:37 </i>
 </generator>
 <incar>
  <i type="string" name="SYSTEM"> Low_opt</i>
  <i type="int" name="ISTART">     0</i>
  <i type="string" name="PREC">accurate</i>
  <i type="int" name="ICHARG">     2</i>
  <i type="int" name="IBRION">     2</i>
  <i name="EDIFF">      0.00010000</i>
  <i name="EDIFFG">     -0.08000000</i>
  <i type="int" name="NSW">   100</i>
  <i type="int" name="ISIF">     2</i>
  <i name="ENCUT">    250.00000000</i>
  <i name="POTIM">      0.10000000</i>
  <i type="logical" name="LWAVE"> F  </i>
  <v type="int" name="KPOINT_BSE">    -1     0     0     0</v>
 </incar>
 <structure name="primitive_cell" >
  <crystal>
   <varray name="basis" >
    <v>       9.56655463       0.00000000       0.00000000 </v>
    <v>       0.00000000      11.22259975       0.00000000 </v>
    <v>       0.00000000       0.00000000      35.05095011 </v>
   </varray>
   <i name="volume">   3763.12656229 </i>
   <varray name="rec_basis" >
    <v>       0.10453084      -0.00000000       0.00000000 </v>
    <v>       0.00000000       0.08910591       0.00000000 </v>
    <v>      -0.00000000      -0.00000000       0.02852990 </v>
   </varray>
  </crystal>
  <varray name="positions" >
   <v>       0.16666667       0.43025757       0.04045561 </v>
   <v>       0.16666667       0.29831291       0.08567570 </v>
   <v>       0.00000000      -0.40664430       0.05718144 </v>
   <v>       0.33333333      -0.40664430       0.05718144 </v>
   <v>       0.16666667      -0.43025757       0.11188419 </v>
   <v>       0.00000000       0.20168709       0.01424713 </v>
   <v>       0.33333333       0.20168709       0.01424713 </v>
   <v>       0.16666667      -0.29831291       0.01424713 </v>
   <v>      -0.16666667       0.43025757       0.04045561 </v>
   <v>      -0.50000000       0.43025757       0.04045561 </v>
   <v>       0.00000000       0.40664430       0.12861001 </v>
   <v>       0.33333333       0.40664430       0.12861001 </v>
   <v>       0.16666667       0.09335570       0.05718144 </v>
   <v>      -0.16666667       0.29831291       0.08567570 </v>
   <v>      -0.50000000       0.29831291       0.08567570 </v>
   <v>      -0.16666667      -0.43025757       0.11188419 </v>
   <v>      -0.50000000      -0.43025757       0.11188419 </v>
   <v>      -0.16666667      -0.29831291       0.01424713 </v>
   <v>      -0.50000000      -0.29831291       0.01424713 </v>
   <v>       0.00000000      -0.20168709       0.08567570 </v>
   <v>       0.33333333      -0.20168709       0.08567570 </v>
   <v>      -0.16666667       0.09335570       0.05718144 </v>
   <v>      -0.50000000       0.09335570       0.05718144 </v>
   <v>       0.16669640       0.42954238       0.18298334 </v>
   <v>       0.00000000       0.06974243       0.11188419 </v>
   <v>       0.33333333       0.06974243       0.11188419 </v>
   <v>       0.33333333       0.20064728       0.15734033 </v>
   <v>       0.00000794       0.20066007       0.15734632 </v>
   <v>       0.16666208      -0.29933329       0.15734632 </v>
   <v>      -0.33333333      -0.40664430       0.05718144 </v>
   <v>      -0.33333333       0.20168709       0.01424713 </v>
   <v>      -0.33333333       0.40664430       0.12861001 </v>
   <v>       0.00000000      -0.06974243       0.04045561 </v>
   <v>       0.33333333      -0.06974243       0.04045561 </v>
   <v>      -0.16666667       0.42954006       0.18296245 </v>
   <v>       0.49997026       0.42954238       0.18298334 </v>
   <v>      -0.16666667      -0.29937389       0.15734402 </v>
   <v>      -0.49999541      -0.29933329       0.15734632 </v>
   <v>       0.33333333      -0.40739543       0.20041660 </v>
   <v>       0.00003799      -0.40736489       0.20042899 </v>
   <v>       0.16666667      -0.09335570       0.12861001 </v>
   <v>      -0.33333333      -0.20168709       0.08567570 </v>
   <v>      -0.33333333       0.06974243       0.11188419 </v>
   <v>       0.16667829       0.29855994       0.22849049 </v>
   <v>       0.16667193       0.09262087       0.20041820 </v>
   <v>      -0.33334127       0.20066007       0.15734632 </v>
   <v>      -0.16666667      -0.09335570       0.12861001 </v>
   <v>      -0.50000000      -0.09335570       0.12861001 </v>
   <v>      -0.33333333      -0.06974243       0.04045561 </v>
   <v>      -0.16666667       0.29862294       0.22846273 </v>
   <v>       0.49998837       0.29855994       0.22849049 </v>
   <v>      -0.16666667       0.09260852       0.20041448 </v>
   <v>       0.49999474       0.09262087       0.20041820 </v>
   <v>      -0.33337133      -0.40736489       0.20042899 </v>
   <v>       0.33333333      -0.07047472       0.18296888 </v>
   <v>      -0.00001382      -0.07046027       0.18297505 </v>
   <v>       0.16676898      -0.43012698       0.25482168 </v>
   <v>       0.33333333      -0.20138867       0.22847364 </v>
   <v>       0.00000356      -0.20139350       0.22848584 </v>
   <v>       0.00002771       0.40685647       0.27151823 </v>
   <v>       0.33333333       0.40688518       0.27158433 </v>
   <v>      -0.16666667      -0.43009395       0.25476601 </v>
   <v>       0.49989769      -0.43012698       0.25482168 </v>
   <v>       0.33333333       0.06980215       0.25479800 </v>
   <v>      -0.00002974       0.06976991       0.25479818 </v>
   <v>      -0.33331951      -0.07046027       0.18297505 </v>
   <v>      -0.33333689      -0.20139350       0.22848584 </v>
   <v>      -0.33336104       0.40685647       0.27151823 </v>
   <v>       0.00004364       0.20162795       0.29994576 </v>
   <v>       0.33333333       0.20159960       0.29996946 </v>
   <v>       0.16674396      -0.29826701       0.30000325 </v>
   <v>       0.16666996      -0.09319132       0.27156654 </v>
   <v>      -0.33330360       0.06976991       0.25479818 </v>
   <v>       0.16660371       0.42996857       0.32624422 </v>
   <v>      -0.16666667      -0.29824751       0.29988963 </v>
   <v>       0.49992270      -0.29826701       0.30000325 </v>
   <v>       0.49999670      -0.09319132       0.27156654 </v>
   <v>      -0.16666667      -0.09315548       0.27155918 </v>
   <v>      -0.16666667       0.42976652       0.32613369 </v>
   <v>      -0.49993704       0.42996857       0.32624422 </v>
   <v>      -0.33337698       0.20162795       0.29994576 </v>
   <v>      -0.00013116      -0.40706801       0.34268683 </v>
   <v>       0.33333333      -0.40718640       0.34307658 </v>
   <v>       0.16661336       0.09304958       0.34294758 </v>
   <v>       0.00000533      -0.06984646       0.32624890 </v>
   <v>       0.33333333      -0.06986232       0.32625501 </v>
   <v>       0.16661108       0.29795683       0.37145261 </v>
   <v>      -0.16666667       0.09296327       0.34288440 </v>
   <v>      -0.49994669       0.09304958       0.34294758 </v>
   <v>      -0.33320218      -0.40706801       0.34268683 </v>
   <v>      -0.16666667       0.29774332       0.37121520 </v>
   <v>      -0.49994441       0.29795683       0.37145261 </v>
   <v>       0.00010347      -0.20213757       0.37134963 </v>
   <v>       0.33333333      -0.20209631       0.37138139 </v>
   <v>      -0.33333866      -0.06984646       0.32624890 </v>
   <v>       0.16576908      -0.43095097       0.39761071 </v>
   <v>      -0.16666667      -0.42954139       0.39732962 </v>
   <v>      -0.49910241      -0.43095097       0.39761071 </v>
   <v>      -0.00063973       0.40646885       0.41377960 </v>
   <v>      -0.33343680      -0.20213757       0.37134963 </v>
   <v>       0.33333333       0.40586737       0.41460950 </v>
   <v>      -0.00019371       0.06954473       0.39765914 </v>
   <v>       0.33333333       0.06954570       0.39767351 </v>
   <v>      -0.33269360       0.40646885       0.41377960 </v>
   <v>      -0.33313963       0.06954473       0.39765914 </v>
   <v>       0.16674340      -0.09381291       0.41416583 </v>
   <v>       0.16660989      -0.30068153       0.44298275 </v>
   <v>      -0.00015984       0.20027599       0.44295641 </v>
   <v>       0.33333333       0.20018994       0.44308622 </v>
   <v>       0.49992327      -0.09381291       0.41416583 </v>
   <v>      -0.16666667      -0.09364814       0.41418424 </v>
   <v>      -0.16666667       0.41519463      -0.36777728 </v>
   <v>      -0.16666667      -0.29947486       0.44280726 </v>
   <v>      -0.49994323      -0.30068153       0.44298275 </v>
   <v>       0.16499889       0.42703001       0.46934339 </v>
   <v>      -0.33317349       0.20027599       0.44295641 </v>
   <v>      -0.16666667       0.42598120       0.46818859 </v>
   <v>      -0.49833222       0.42703001       0.46934339 </v>
   <v>      -0.00231435      -0.41170637       0.48536669 </v>
   <v>       0.33333333      -0.41178096       0.48557511 </v>
   <v>      -0.16666667       0.40745508      -0.40113771 </v>
   <v>       0.16658174       0.08874177       0.48563760 </v>
   <v>       0.33333333      -0.07326340       0.46893605 </v>
   <v>       0.00040865      -0.07350416       0.46899161 </v>
   <v>      -0.49991508       0.08874177       0.48563760 </v>
   <v>      -0.16666667       0.08879617       0.48589421 </v>
   <v>      -0.33101898      -0.41170637       0.48536669 </v>
   <v>      -0.33374198      -0.07350416       0.46899161 </v>
   <v>       0.16480136       0.29261237      -0.48388171 </v>
   <v>      -0.16666667       0.29850726      -0.48566325 </v>
   <v>      -0.49813469       0.29261237      -0.48388171 </v>
   <v>      -0.00437978       0.41522812      -0.44745596 </v>
   <v>      -0.00079409      -0.20914006      -0.48494409 </v>
   <v>       0.33333333      -0.20842187      -0.48492694 </v>
   <v>       0.33333333       0.41445614      -0.45133004 </v>
   <v>       0.16298805      -0.42423823      -0.45747771 </v>
   <v>      -0.32895355       0.41522812      -0.44745596 </v>
   <v>      -0.33253924      -0.20914006      -0.48494409 </v>
   <v>      -0.49632139      -0.42423823      -0.45747771 </v>
   <v>      -0.16666667      -0.41285848      -0.45892378 </v>
   <v>       0.33333333       0.08182427      -0.45766850 </v>
   <v>      -0.00010440       0.08091019      -0.45765348 </v>
   <v>       0.16570993      -0.08406113      -0.45242271 </v>
   <v>      -0.16666667      -0.08547881      -0.45203544 </v>
   <v>      -0.49904327      -0.08406113      -0.45242271 </v>
   <v>      -0.33322893       0.08091019      -0.45765348 </v>
  </varray>
 </structure>
 <varray name="primitive_index" >
  <v type="int" >        1 </v>
  <v type="int" >       10 </v>
  <v type="int" >      103 </v>
  <v type="int" >      104 </v>
  <v type="int" >       16 </v>
  <v type="int" >        7 </v>
  <v type="int" >        8 </v>
  <v type="int" >       19 </v>
  <v type="int" >        3 </v>
  <v type="int" >        2 </v>
  <v type="int" >      100 </v>
  <v type="int" >      101 </v>
  <v type="int" >       97 </v>
  <v type="int" >       12 </v>
  <v type="int" >       11 </v>
  <v type="int" >       18 </v>
  <v type="int" >       17 </v>
  <v type="int" >       21 </v>
  <v type="int" >       20 </v>
  <v type="int" >       22 </v>
  <v type="int" >       23 </v>
  <v type="int" >       99 </v>
  <v type="int" >       98 </v>
  <v type="int" >       25 </v>
  <v type="int" >        4 </v>
  <v type="int" >        5 </v>
  <v type="int" >       32 </v>
  <v type="int" >       31 </v>
  <v type="int" >       43 </v>
  <v type="int" >      105 </v>
  <v type="int" >        9 </v>
  <v type="int" >      102 </v>
  <v type="int" >       13 </v>
  <v type="int" >       14 </v>
  <v type="int" >       27 </v>
  <v type="int" >       26 </v>
  <v type="int" >       45 </v>
  <v type="int" >       44 </v>
  <v type="int" >      116 </v>
  <v type="int" >      115 </v>
  <v type="int" >      106 </v>
  <v type="int" >       24 </v>
  <v type="int" >        6 </v>
  <v type="int" >       34 </v>
  <v type="int" >      109 </v>
  <v type="int" >       33 </v>
  <v type="int" >      108 </v>
  <v type="int" >      107 </v>
  <v type="int" >       15 </v>
  <v type="int" >       36 </v>
  <v type="int" >       35 </v>
  <v type="int" >      111 </v>
  <v type="int" >      110 </v>
  <v type="int" >      117 </v>
  <v type="int" >       38 </v>
  <v type="int" >       37 </v>
  <v type="int" >       40 </v>
  <v type="int" >       47 </v>
  <v type="int" >       46 </v>
  <v type="int" >      112 </v>
  <v type="int" >      113 </v>
  <v type="int" >       42 </v>
  <v type="int" >       41 </v>
  <v type="int" >       29 </v>
  <v type="int" >       28 </v>
  <v type="int" >       39 </v>
  <v type="int" >       48 </v>
  <v type="int" >      114 </v>
  <v type="int" >       55 </v>
  <v type="int" >       56 </v>
  <v type="int" >       67 </v>
  <v type="int" >      118 </v>
  <v type="int" >       30 </v>
  <v type="int" >       49 </v>
  <v type="int" >       69 </v>
  <v type="int" >       68 </v>
  <v type="int" >      119 </v>
  <v type="int" >      120 </v>
  <v type="int" >       51 </v>
  <v type="int" >       50 </v>
  <v type="int" >       57 </v>
  <v type="int" >      127 </v>
  <v type="int" >      128 </v>
  <v type="int" >      121 </v>
  <v type="int" >       61 </v>
  <v type="int" >       62 </v>
  <v type="int" >       58 </v>
  <v type="int" >      123 </v>
  <v type="int" >      122 </v>
  <v type="int" >      129 </v>
  <v type="int" >       60 </v>
  <v type="int" >       59 </v>
  <v type="int" >       70 </v>
  <v type="int" >       71 </v>
  <v type="int" >       63 </v>
  <v type="int" >       64 </v>
  <v type="int" >       66 </v>
  <v type="int" >       65 </v>
  <v type="int" >      124 </v>
  <v type="int" >       72 </v>
  <v type="int" >      125 </v>
  <v type="int" >       52 </v>
  <v type="int" >       53 </v>
  <v type="int" >      126 </v>
  <v type="int" >       54 </v>
  <v type="int" >      130 </v>
  <v type="int" >       91 </v>
  <v type="int" >       79 </v>
  <v type="int" >       80 </v>
  <v type="int" >      131 </v>
  <v type="int" >      132 </v>
  <v type="int" >      145 </v>
  <v type="int" >       93 </v>
  <v type="int" >       92 </v>
  <v type="int" >       73 </v>
  <v type="int" >       81 </v>
  <v type="int" >       75 </v>
  <v type="int" >       74 </v>
  <v type="int" >      139 </v>
  <v type="int" >      140 </v>
  <v type="int" >      146 </v>
  <v type="int" >      133 </v>
  <v type="int" >       86 </v>
  <v type="int" >       85 </v>
  <v type="int" >      134 </v>
  <v type="int" >      135 </v>
  <v type="int" >      141 </v>
  <v type="int" >       87 </v>
  <v type="int" >       82 </v>
  <v type="int" >       84 </v>
  <v type="int" >       83 </v>
  <v type="int" >      136 </v>
  <v type="int" >       94 </v>
  <v type="int" >       95 </v>
  <v type="int" >      137 </v>
  <v type="int" >       88 </v>
  <v type="int" >      138 </v>
  <v type="int" >       96 </v>
  <v type="int" >       89 </v>
  <v type="int" >       90 </v>
  <v type="int" >       77 </v>
  <v type="int" >       76 </v>
  <v type="int" >      142 </v>
  <v type="int" >      144 </v>
  <v type="int" >      143 </v>
  <v type="int" >       78 </v>
 </varray>
 <kpoints>
  <generation param="Gamma">
   <v type="int" name="divisions">       6        5        2 </v>
   <v name="usershift">      0.00000000       0.00000000       0.00000000 </v>
   <v name="genvec1">      0.16666667       0.00000000       0.00000000 </v>
   <v name="genvec2">      0.00000000       0.20000000       0.00000000 </v>
   <v name="genvec3">      0.00000000      -0.00000000       0.50000000 </v>
   <v name="shift">      0.00000000       0.00000000       0.00000000 </v>
  </generation>
  <varray name="kpointlist" >
   <v>       0.00000000       0.00000000       0.00000000 </v>
   <v>       0.16666667      -0.00000000       0.00000000 </v>
   <v>       0.33333333      -0.00000000       0.00000000 </v>
   <v>       0.50000000      -0.00000000       0.00000000 </v>
   <v>       0.00000000       0.20000000       0.00000000 </v>
   <v>       0.16666667       0.20000000       0.00000000 </v>
   <v>       0.33333333       0.20000000       0.00000000 </v>
   <v>       0.50000000       0.20000000       0.00000000 </v>
   <v>       0.00000000       0.40000000       0.00000000 </v>
   <v>       0.16666667       0.40000000       0.00000000 </v>
   <v>       0.33333333       0.40000000       0.00000000 </v>
   <v>       0.50000000       0.40000000       0.00000000 </v>
   <v>      -0.00000000      -0.00000000       0.50000000 </v>
   <v>       0.16666667      -0.00000000       0.50000000 </v>
   <v>       0.33333333      -0.00000000       0.50000000 </v>
   <v>       0.50000000      -0.00000000       0.50000000 </v>
   <v>      -0.00000000       0.20000000       0.50000000 </v>
   <v>       0.16666667       0.20000000       0.50000000 </v>
   <v>       0.33333333       0.20000000       0.50000000 </v>
   <v>       0.50000000       0.20000000       0.50000000 </v>
   <v>      -0.00000000       0.40000000       0.50000000 </v>
   <v>       0.16666667       0.40000000       0.50000000 </v>
   <v>       0.33333333       0.40000000       0.50000000 </v>
   <v>       0.50000000       0.40000000       0.50000000 </v>
  </varray>
  <varray name="weights" >
   <v>       0.01666667 </v>
   <v>       0.03333333 </v>
   <v>       0.03333333 </v>
   <v>       0.01666667 </v>
   <v>       0.03333333 </v>
   <v>       0.06666667 </v>
   <v>       0.06666667 </v>
   <v>       0.03333333 </v>
   <v>       0.03333333 </v>
   <v>       0.06666667 </v>
   <v>       0.06666667 </v>
   <v>       0.03333333 </v>
   <v>       0.01666667 </v>
   <v>       0.03333333 </v>
   <v>       0.03333333 </v>
   <v>       0.01666667 </v>
   <v>       0.03333333 </v>
   <v>       0.06666667 </v>
   <v>       0.06666667 </v>
   <v>       0.03333333 </v>
   <v>       0.03333333 </v>
   <v>       0.06666667 </v>
   <v>       0.06666667 </v>
   <v>       0.03333333 </v>
  </varray>
 </kpoints>
 <parameters>
  <separator name="general" >
   <i type="string" name="SYSTEM">Low_opt</i>
   <i type="logical" name="LCOMPAT"> F  </i>
  </separator>
  <separator name="electronic" >
   <i type="string" name="PREC">accura</i>
   <i name="ENMAX">    250.00000000</i>
   <i name="ENAUG">    644.87300000</i>
   <i name="EDIFF">      0.00010000</i>
   <i type="int" name="IALGO">    38</i>
   <i type="int" name="IWAVPR">    11</i>
   <i type="int" name="NBANDS">   640</i>
   <i name="NELECT">   1066.00000000</i>
   <i type="int" name="TURBO">     0</i>
   <i type="int" name="IRESTART">     0</i>
   <i type="int" name="NREBOOT">     0</i>
   <i type="int" name="NMIN">     0</i>
   <i name="EREF">      0.00000000</i>
   <separator name="electronic smearing" >
    <i type="int" name="ISMEAR">     1</i>
    <i name="SIGMA">      0.20000000</i>
    <i name="KSPACING">      0.50000000</i>
    <i type="logical" name="KGAMMA"> T  </i>
   </separator>
   <separator name="electronic projectors" >
    <i type="logical" name="LREAL"> F  </i>
    <v name="ROPT">      0.00000000      0.00000000      0.00000000      0.00000000</v>
    <i type="int" name="LMAXPAW">  -100</i>
    <i type="int" name="LMAXMIX">     2</i>
    <i type="logical" name="NLSPLINE"> F  </i>
   </separator>
   <separator name="electronic startup" >
    <i type="int" name="ISTART">     0</i>
    <i type="int" name="ICHARG">     2</i>
    <i type="int" name="INIWAV">     1</i>
   </separator>
   <separator name="electronic spin" >
    <i type="int" name="ISPIN">     1</i>
    <i type="logical" name="LNONCOLLINEAR"> F  </i>
    <v name="MAGMOM">      1.00000000      1.00000000      1.00000000      1.00000000      1.00000000      1.00000000      1.00000000      1.00000000      1.00000000      1.00000000      1.00000000      1.00000000      1.00000000      1.00000000      1.00000000      1.00000000      1.00000000      1.00000000      1.00000000      1.00000000
      1.00000000      1.00000000      1.00000000      1.00000000      1.00000000      1.00000000      1.00000000      1.00000000      1.00000000      1.00000000      1.00000000      1.00000000      1.00000000      1.00000000      1.00000000      1.00000000      1.00000000      1.00000000      1.00000000      1.00000000
      1.00000000      1.00000000      1.00000000      1.00000000      1.00000000      1.00000000      1.00000000      1.00000000      1.00000000      1.00000000      1.00000000      1.00000000      1.00000000      1.00000000      1.00000000      1.00000000      1.00000000      1.00000000      1.00000000      1.00000000
      1.00000000      1.00000000      1.00000000      1.00000000      1.00000000      1.00000000      1.00000000      1.00000000      1.00000000      1.00000000      1.00000000      1.00000000      1.00000000      1.00000000      1.00000000      1.00000000      1.00000000      1.00000000      1.00000000      1.00000000
      1.00000000      1.00000000      1.00000000      1.00000000      1.00000000      1.00000000      1.00000000      1.00000000      1.00000000      1.00000000      1.00000000      1.00000000      1.00000000      1.00000000      1.00000000      1.00000000      1.00000000      1.00000000      1.00000000      1.00000000
      1.00000000      1.00000000      1.00000000      1.00000000      1.00000000      1.00000000      1.00000000      1.00000000      1.00000000      1.00000000      1.00000000      1.00000000      1.00000000      1.00000000      1.00000000      1.00000000      1.00000000      1.00000000      1.00000000      1.00000000
      1.00000000      1.00000000      1.00000000      1.00000000      1.00000000      1.00000000      1.00000000      1.00000000      1.00000000      1.00000000      1.00000000      1.00000000      1.00000000      1.00000000      1.00000000      1.00000000      1.00000000      1.00000000      1.00000000      1.00000000
      1.00000000      1.00000000      1.00000000      1.00000000      1.00000000      1.00000000</v>
    <i name="NUPDOWN">     -1.00000000</i>
    <i type="logical" name="LSORBIT"> F  </i>
    <v name="SAXIS">      0.00000000      0.00000000      1.00000000</v>
    <i type="logical" name="LSPIRAL"> F  </i>
    <v name="QSPIRAL">      0.00000000      0.00000000      0.00000000</v>
    <i type="logical" name="LZEROZ"> F  </i>
   </separator>
   <separator name="electronic exchange-correlation" >
    <i type="logical" name="LASPH"> F  </i>
    <i type="logical" name="LMETAGGA"> F  </i>
   </separator>
   <separator name="electronic convergence" >
    <i type="int" name="NELM">    60</i>
    <i type="int" name="NELMDL">    -5</i>
    <i type="int" name="NELMIN">     2</i>
    <i name="ENINI">    250.00000000</i>
    <separator name="electronic convergence detail" >
     <i type="logical" name="LDIAG"> T  </i>
     <i type="logical" name="LSUBROT"> F  </i>
     <i name="WEIMIN">      0.00100000</i>
     <i name="EBREAK">      0.00000004</i>
     <i name="DEPER">      0.30000000</i>
     <i type="int" name="NRMM">     4</i>
     <i name="TIME">      0.40000000</i>
    </separator>
   </separator>
   <separator name="electronic mixer" >
    <i name="AMIX">      0.40000000</i>
    <i name="BMIX">      1.00000000</i>
    <i name="AMIN">      0.10000000</i>
    <i name="AMIX_MAG">      1.60000000</i>
    <i name="BMIX_MAG">      1.00000000</i>
    <separator name="electronic mixer details" >
     <i type="int" name="IMIX">     4</i>
     <i type="logical" name="MIXFIRST"> F  </i>
     <i type="int" name="MAXMIX">   -45</i>
     <i name="WC">    100.00000000</i>
     <i type="int" name="INIMIX">     1</i>
     <i type="int" name="MIXPRE">     1</i>
     <i type="int" name="MREMOVE">     5</i>
    </separator>
   </separator>
   <separator name="electronic dipolcorrection" >
    <i type="logical" name="LDIPOL"> F  </i>
    <i type="logical" name="LMONO"> F  </i>
    <i type="int" name="IDIPOL">     0</i>
    <i name="EPSILON">      1.00000000</i>
    <v name="DIPOL">   -100.00000000   -100.00000000   -100.00000000</v>
    <i name="EFIELD">      0.00000000</i>
   </separator>
  </separator>
  <separator name="grids" >
   <i type="int" name="NGX">    50</i>
   <i type="int" name="NGY">    60</i>
   <i type="int" name="NGZ">   192</i>
   <i type="int" name="NGXF">   100</i>
   <i type="int" name="NGYF">   120</i>
   <i type="int" name="NGZF">   384</i>
   <i type="logical" name="ADDGRID"> F  </i>
  </separator>
  <separator name="ionic" >
   <i type="int" name="NSW">   100</i>
   <i type="int" name="IBRION">     2</i>
   <i type="int" name="MDALGO">     0</i>
   <i type="int" name="ISIF">     2</i>
   <i name="PSTRESS">      0.00000000</i>
   <i name="EDIFFG">     -0.08000000</i>
   <i type="int" name="NFREE">     1</i>
   <i name="POTIM">      0.10000000</i>
   <i name="SMASS">     -3.00000000</i>
   <i name="SCALEE">      1.00000000</i>
  </separator>
  <separator name="ionic md" >
   <i name="TEBEG">      0.00010000</i>
   <i name="TEEND">      0.00010000</i>
   <i type="int" name="NBLOCK">     1</i>
   <i type="int" name="KBLOCK">   100</i>
   <i type="int" name="NPACO">   256</i>
   <i name="APACO">     16.00000000</i>
  </separator>
  <separator name="symmetry" >
   <i type="int" name="ISYM">     2</i>
   <i name="SYMPREC">      0.00001000</i>
  </separator>
  <separator name="dos" >
   <i type="int" name="LORBIT">     0</i>
   <v name="RWIGS">     -1.00000000     -1.00000000     -1.00000000     -1.00000000</v>
   <i type="int" name="NEDOS">   301</i>
   <i name="EMIN">     10.00000000</i>
   <i name="EMAX">    -10.00000000</i>
   <i name="EFERMI">      0.00000000</i>
  </separator>
  <separator name="writing" >
   <i type="int" name="NWRITE">     2</i>
   <i type="logical" name="LWAVE"> F  </i>
   <i type="logical" name="LDOWNSAMPLE"> F  </i>
   <i type="logical" name="LCHARG"> T  </i>
   <i type="logical" name="LPARD"> F  </i>
   <i type="logical" name="LVTOT"> F  </i>
   <i type="logical" name="LVHAR"> F  </i>
   <i type="logical" name="LELF"> F  </i>
   <i type="logical" name="LOPTICS"> F  </i>
   <v name="STM">      0.00000000      0.00000000      0.00000000      0.00000000      0.00000000      0.00000000      0.00000000</v>
  </separator>
  <separator name="performance" >
   <i type="int" name="NPAR">   128</i>
   <i type="int" name="NSIM">     4</i>
   <i type="int" name="NBLK">    -1</i>
   <i type="logical" name="LPLANE"> T  </i>
   <i type="logical" name="LSCALAPACK"> T  </i>
   <i type="logical" name="LSCAAWARE"> T  </i>
   <i type="logical" name="LSCALU"> F  </i>
   <i type="logical" name="LASYNC"> F  </i>
   <i type="logical" name="LORBITALREAL"> F  </i>
  </separator>
  <separator name="miscellaneous" >
   <i type="int" name="IDIOT">     3</i>
   <i type="int" name="ISPECIAL">     0</i>
   <i type="logical" name="LMUSIC"> F  </i>
   <v name="POMASS">     30.97400000    183.85000000     16.00000000     12.01100000</v>
   <v name="DARWINR">      0.00000000      0.00000000      0.00000000      0.00000000</v>
   <v name="DARWINV">      1.00000000      1.00000000      1.00000000      1.00000000</v>
   <i type="logical" name="LCORR"> T  </i>
  </separator>
  <i type="logical" name="GGA_COMPAT"> T  </i>
  <i type="logical" name="LBERRY"> F  </i>
  <i type="int" name="ICORELEVEL">     0</i>
  <i type="logical" name="LDAU"> F  </i>
  <i type="int" name="I_CONSTRAINED_M">     0</i>
  <separator name="electronic exchange-correlation" >
   <i type="string" name="GGA">--</i>
   <i type="int" name="VOSKOWN">     0</i>
   <i type="logical" name="LHFCALC"> F  </i>
   <i type="string" name="PRECFOCK"></i>
   <i type="logical" name="LSYMGRAD"> F  </i>
   <i type="logical" name="LHFONE"> F  </i>
   <i type="logical" name="LRHFCALC"> F  </i>
   <i type="logical" name="LTHOMAS"> F  </i>
   <i type="logical" name="LMODELHF"> F  </i>
   <i name="ENCUT4O">     -1.00000000</i>
   <i type="int" name="EXXOEP">     0</i>
   <i type="int" name="FOURORBIT">     0</i>
   <i name="AEXX">      0.00000000</i>
   <i name="HFALPHA">      0.00000000</i>
   <i name="MCALPHA">      0.00000000</i>
   <i name="ALDAX">      1.00000000</i>
   <i name="AGGAX">      1.00000000</i>
   <i name="ALDAC">      1.00000000</i>
   <i name="AGGAC">      1.00000000</i>
   <i type="int" name="NKREDX">     1</i>
   <i type="int" name="NKREDY">     1</i>
   <i type="int" name="NKREDZ">     1</i>
   <i type="logical" name="SHIFTRED"> F  </i>
   <i type="logical" name="ODDONLY"> F  </i>
   <i type="logical" name="EVENONLY"> F  </i>
   <i type="int" name="LMAXFOCK">     0</i>
   <i type="int" name="NMAXFOCKAE">     0</i>
   <i type="logical" name="LFOCKAEDFT"> F  </i>
   <i name="HFSCREEN">      0.00000000</i>
   <i name="HFSCREENC">      0.00000000</i>
   <i type="int" name="NBANDSGWLOW">     0</i>
  </separator>
  <separator name="vdW DFT" >
   <i type="logical" name="LUSE_VDW"> F  </i>
   <i name="Zab_VDW">     -0.84910000</i>
   <i name="PARAM1">      0.12340000</i>
   <i name="PARAM2">      1.00000000</i>
   <i name="PARAM3">      0.00000000</i>
  </separator>
  <separator name="model GW" >
   <i type="int" name="MODEL_GW">     0</i>
   <i name="MODEL_EPS0">     15.46490368</i>
   <i name="MODEL_ALPHA">      1.00000000</i>
  </separator>
  <separator name="linear response parameters" >
   <i type="logical" name="LEPSILON"> F  </i>
   <i type="logical" name="LRPA"> F  </i>
   <i type="logical" name="LNABLA"> F  </i>
   <i type="logical" name="LVEL"> F  </i>
   <i type="int" name="KINTER">     0</i>
   <i name="CSHIFT">      0.10000000</i>
   <i name="OMEGAMAX">     -1.00000000</i>
   <i name="DEG_THRESHOLD">      0.00200000</i>
   <i name="RTIME">     -0.10000000</i>
   <i name="WPLASMAI">      0.00000000</i>
   <v name="DFIELD">      0.00000000      0.00000000      0.00000000</v>
   <v name="WPLASMA">      0.00000000      0.00000000      0.00000000      0.00000000      0.00000000      0.00000000      0.00000000      0.00000000      0.00000000</v>
  </separator>
  <separator name="orbital magnetization" >
   <i type="logical" name="NUCIND"> F  </i>
   <v name="MAGPOS">      0.00000000      0.00000000      0.00000000</v>
   <i type="logical" name="LNICSALL"> T  </i>
   <i type="logical" name="ORBITALMAG"> F  </i>
   <i type="logical" name="LMAGBLOCH"> F  </i>
   <i type="logical" name="LCHIMAG"> F  </i>
   <i type="logical" name="LGAUGE"> T  </i>
   <i type="int" name="MAGATOM">     0</i>
   <v name="MAGDIPOL">      0.00000000      0.00000000      0.00000000</v>
   <v name="AVECCONST">      0.00000000      0.00000000      0.00000000</v>
  </separator>
  <separator name="response functions" >
   <i type="logical" name="LADDER"> F  </i>
   <i type="logical" name="LRPAFORCE"> F  </i>
   <i type="logical" name="LFXC"> F  </i>
   <i type="logical" name="LHARTREE"> T  </i>
   <i type="int" name="IBSE">     0</i>
   <v type="int" name="KPOINT">    -1     0     0     0</v>
   <i type="logical" name="LTCTE"> F  </i>
   <i type="logical" name="LTETE"> F  </i>
   <i type="logical" name="LTRIPLET"> F  </i>
   <i type="logical" name="LFXCEPS"> F  </i>
   <i type="logical" name="LFXHEG"> F  </i>
   <i type="int" name="NATURALO">     2</i>
   <i type="logical" name="L2ORDER"> F  </i>
   <i type="logical" name="LMP2LT"> F  </i>
   <i type="logical" name="LUSEW"> F  </i>
   <i name="ENCUTGW">     -2.00000000</i>
   <i name="ENCUTGWSOFT">     -2.00000000</i>
   <i name="ENCUTLF">     -1.00000000</i>
   <i type="int" name="LMAXMP2">    -1</i>
   <i name="SCISSOR">      0.00000000</i>
   <i type="int" name="NOMEGA">     0</i>
   <i type="int" name="NOMEGAR">     0</i>
   <i type="int" name="NBANDSGW">    -1</i>
   <i type="int" name="NBANDSO">    -1</i>
   <i type="int" name="NBANDSV">    -1</i>
   <i type="int" name="NELM">     1</i>
   <i type="int" name="NELMHF">     1</i>
   <i type="int" name="DIM">     3</i>
   <i type="int" name="ANTIRES">     0</i>
   <i name="OMEGAMAX">    -30.00000000</i>
   <i name="OMEGAMIN">    -30.00000000</i>
   <i name="OMEGATL">   -200.00000000</i>
   <i type="int" name="OMEGAGRID">   140</i>
   <i name="CSHIFT">     -0.10000000</i>
   <i type="logical" name="SELFENERGY"> F  </i>
   <i type="logical" name="LSPECTRAL"> F  </i>
   <i type="logical" name="LSPECTRALGW"> F  </i>
   <i type="logical" name="LSINGLES"> F  </i>
   <i type="logical" name="LFERMIGW"> F  </i>
   <i type="logical" name="ODDONLYGW"> F  </i>
   <i type="logical" name="EVENONLYGW"> F  </i>
   <i type="int" name="NKREDLFX">     1</i>
   <i type="int" name="NKREDLFY">     1</i>
   <i type="int" name="NKREDLFZ">     1</i>
   <i type="int" name="MAXMEM">  2800</i>
   <i type="int" name="TELESCOPE">     0</i>
   <i type="int" name="TAUPAR">     1</i>
   <i type="int" name="OMEGAPAR">    -1</i>
   <i name="LAMBDA">      1.00000000</i>
  </separator>
  <separator name="External order field" >
   <i name="OFIELD_KAPPA">      0.00000000</i>
   <v name="OFIELD_K">      0.00000000      0.00000000      0.00000000</v>
   <i name="OFIELD_Q6_NEAR">      0.00000000</i>
   <i name="OFIELD_Q6_FAR">      0.00000000</i>
   <i name="OFIELD_A">      0.00000000</i>
  </separator>
 </parameters>
 <atominfo>
  <atoms>     146 </atoms>
  <types>       4 </types>
  <array name="atoms" >
   <dimension dim="1">ion</dimension>
   <field type="string">element</field>
   <field type="int">atomtype</field>
   <set>
    <rc><c>P </c><c>   1</c></rc>
    <rc><c>P </c><c>   1</c></rc>
    <rc><c>P </c><c>   1</c></rc>
    <rc><c>P </c><c>   1</c></rc>
    <rc><c>P </c><c>   1</c></rc>
    <rc><c>P </c><c>   1</c></rc>
    <rc><c>P </c><c>   1</c></rc>
    <rc><c>P </c><c>   1</c></rc>
    <rc><c>P </c><c>   1</c></rc>
    <rc><c>P </c><c>   1</c></rc>
    <rc><c>P </c><c>   1</c></rc>
    <rc><c>P </c><c>   1</c></rc>
    <rc><c>P </c><c>   1</c></rc>
    <rc><c>P </c><c>   1</c></rc>
    <rc><c>P </c><c>   1</c></rc>
    <rc><c>P </c><c>   1</c></rc>
    <rc><c>P </c><c>   1</c></rc>
    <rc><c>P </c><c>   1</c></rc>
    <rc><c>P </c><c>   1</c></rc>
    <rc><c>P </c><c>   1</c></rc>
    <rc><c>P </c><c>   1</c></rc>
    <rc><c>P </c><c>   1</c></rc>
    <rc><c>P </c><c>   1</c></rc>
    <rc><c>P </c><c>   1</c></rc>
    <rc><c>P </c><c>   1</c></rc>
    <rc><c>P </c><c>   1</c></rc>
    <rc><c>P </c><c>   1</c></rc>
    <rc><c>P </c><c>   1</c></rc>
    <rc><c>P </c><c>   1</c></rc>
    <rc><c>P </c><c>   1</c></rc>
    <rc><c>P </c><c>   1</c></rc>
    <rc><c>P </c><c>   1</c></rc>
    <rc><c>P </c><c>   1</c></rc>
    <rc><c>P </c><c>   1</c></rc>
    <rc><c>P </c><c>   1</c></rc>
    <rc><c>P </c><c>   1</c></rc>
    <rc><c>P </c><c>   1</c></rc>
    <rc><c>P </c><c>   1</c></rc>
    <rc><c>P </c><c>   1</c></rc>
    <rc><c>P </c><c>   1</c></rc>
    <rc><c>P </c><c>   1</c></rc>
    <rc><c>P </c><c>   1</c></rc>
    <rc><c>P </c><c>   1</c></rc>
    <rc><c>P </c><c>   1</c></rc>
    <rc><c>P </c><c>   1</c></rc>
    <rc><c>P </c><c>   1</c></rc>
    <rc><c>P </c><c>   1</c></rc>
    <rc><c>P </c><c>   1</c></rc>
    <rc><c>P </c><c>   1</c></rc>
    <rc><c>P </c><c>   1</c></rc>
    <rc><c>P </c><c>   1</c></rc>
    <rc><c>P </c><c>   1</c></rc>
    <rc><c>P </c><c>   1</c></rc>
    <rc><c>P </c><c>   1</c></rc>
    <rc><c>P </c><c>   1</c></rc>
    <rc><c>P </c><c>   1</c></rc>
    <rc><c>P </c><c>   1</c></rc>
    <rc><c>P </c><c>   1</c></rc>
    <rc><c>P </c><c>   1</c></rc>
    <rc><c>P </c><c>   1</c></rc>
    <rc><c>P </c><c>   1</c></rc>
    <rc><c>P </c><c>   1</c></rc>
    <rc><c>P </c><c>   1</c></rc>
    <rc><c>P </c><c>   1</c></rc>
    <rc><c>P </c><c>   1</c></rc>
    <rc><c>P </c><c>   1</c></rc>
    <rc><c>P </c><c>   1</c></rc>
    <rc><c>P </c><c>   1</c></rc>
    <rc><c>P </c><c>   1</c></rc>
    <rc><c>P </c><c>   1</c></rc>
    <rc><c>P </c><c>   1</c></rc>
    <rc><c>P </c><c>   1</c></rc>
    <rc><c>P </c><c>   1</c></rc>
    <rc><c>P </c><c>   1</c></rc>
    <rc><c>P </c><c>   1</c></rc>
    <rc><c>P </c><c>   1</c></rc>
    <rc><c>P </c><c>   1</c></rc>
    <rc><c>P </c><c>   1</c></rc>
    <rc><c>P </c><c>   1</c></rc>
    <rc><c>P </c><c>   1</c></rc>
    <rc><c>P </c><c>   1</c></rc>
    <rc><c>P </c><c>   1</c></rc>
    <rc><c>P </c><c>   1</c></rc>
    <rc><c>P </c><c>   1</c></rc>
    <rc><c>P </c><c>   1</c></rc>
    <rc><c>P </c><c>   1</c></rc>
    <rc><c>P </c><c>   1</c></rc>
    <rc><c>P </c><c>   1</c></rc>
    <rc><c>P </c><c>   1</c></rc>
    <rc><c>P </c><c>   1</c></rc>
    <rc><c>P </c><c>   1</c></rc>
    <rc><c>P </c><c>   1</c></rc>
    <rc><c>P </c><c>   1</c></rc>
    <rc><c>P </c><c>   1</c></rc>
    <rc><c>P </c><c>   1</c></rc>
    <rc><c>P </c><c>   1</c></rc>
    <rc><c>W </c><c>   2</c></rc>
    <rc><c>W </c><c>   2</c></rc>
    <rc><c>W </c><c>   2</c></rc>
    <rc><c>W </c><c>   2</c></rc>
    <rc><c>W </c><c>   2</c></rc>
    <rc><c>W </c><c>   2</c></rc>
    <rc><c>W </c><c>   2</c></rc>
    <rc><c>W </c><c>   2</c></rc>
    <rc><c>W </c><c>   2</c></rc>
    <rc><c>W </c><c>   2</c></rc>
    <rc><c>W </c><c>   2</c></rc>
    <rc><c>W </c><c>   2</c></rc>
    <rc><c>W </c><c>   2</c></rc>
    <rc><c>W </c><c>   2</c></rc>
    <rc><c>W </c><c>   2</c></rc>
    <rc><c>W </c><c>   2</c></rc>
    <rc><c>W </c><c>   2</c></rc>
    <rc><c>W </c><c>   2</c></rc>
    <rc><c>W </c><c>   2</c></rc>
    <rc><c>W </c><c>   2</c></rc>
    <rc><c>W </c><c>   2</c></rc>
    <rc><c>W </c><c>   2</c></rc>
    <rc><c>W </c><c>   2</c></rc>
    <rc><c>W </c><c>   2</c></rc>
    <rc><c>W </c><c>   2</c></rc>
    <rc><c>W </c><c>   2</c></rc>
    <rc><c>W </c><c>   2</c></rc>
    <rc><c>W </c><c>   2</c></rc>
    <rc><c>W </c><c>   2</c></rc>
    <rc><c>W </c><c>   2</c></rc>
    <rc><c>W </c><c>   2</c></rc>
    <rc><c>W </c><c>   2</c></rc>
    <rc><c>W </c><c>   2</c></rc>
    <rc><c>W </c><c>   2</c></rc>
    <rc><c>W </c><c>   2</c></rc>
    <rc><c>W </c><c>   2</c></rc>
    <rc><c>W </c><c>   2</c></rc>
    <rc><c>W </c><c>   2</c></rc>
    <rc><c>W </c><c>   2</c></rc>
    <rc><c>W </c><c>   2</c></rc>
    <rc><c>W </c><c>   2</c></rc>
    <rc><c>W </c><c>   2</c></rc>
    <rc><c>W </c><c>   2</c></rc>
    <rc><c>W </c><c>   2</c></rc>
    <rc><c>W </c><c>   2</c></rc>
    <rc><c>W </c><c>   2</c></rc>
    <rc><c>W </c><c>   2</c></rc>
    <rc><c>W </c><c>   2</c></rc>
    <rc><c>O </c><c>   3</c></rc>
    <rc><c>C </c><c>   4</c></rc>
   </set>
  </array>
  <array name="atomtypes" >
   <dimension dim="1">type</dimension>
   <field type="int">atomspertype</field>
   <field type="string">element</field>
   <field>mass</field>
   <field>valence</field>
   <field type="string">pseudopotential</field>
   <set>
    <rc><c>  96</c><c>P </c><c>     30.97400000</c><c>      5.00000000</c><c>  PAW_PBE P 17Jan2003                   </c></rc>
    <rc><c>  48</c><c>W </c><c>    183.85000000</c><c>     12.00000000</c><c> PAW_PBE W_pv 06Sep2000                 </c></rc>
    <rc><c>   1</c><c>O </c><c>     16.00000000</c><c>      6.00000000</c><c> PAW_PBE O 08Apr2002                    </c></rc>
    <rc><c>   1</c><c>C </c><c>     12.01100000</c><c>      4.00000000</c><c> PAW_PBE C 08Apr2002                    </c></rc>
   </set>
  </array>
 </atominfo>
 <structure name="initialpos" >
  <crystal>
   <varray name="basis" >
    <v>       9.56655463       0.00000000       0.00000000 </v>
    <v>       0.00000000      11.22259975       0.00000000 </v>
    <v>       0.00000000       0.00000000      35.05095011 </v>
   </varray>
   <i name="volume">   3763.12656229 </i>
   <varray name="rec_basis" >
    <v>       0.10453084      -0.00000000       0.00000000 </v>
    <v>       0.00000000       0.08910591       0.00000000 </v>
    <v>      -0.00000000      -0.00000000       0.02852990 </v>
   </varray>
  </crystal>
  <varray name="positions" >
   <v>       0.16666667       0.43025757       0.04045561 </v>
   <v>       0.50000000       0.43025757       0.04045561 </v>
   <v>       0.83333333       0.43025757       0.04045561 </v>
   <v>       0.00000000       0.06974243       0.11188419 </v>
   <v>       0.33333333       0.06974243       0.11188419 </v>
   <v>       0.66666667       0.06974243       0.11188419 </v>
   <v>       0.00000000       0.20168709       0.01424713 </v>
   <v>       0.33333333       0.20168709       0.01424713 </v>
   <v>       0.66666667       0.20168709       0.01424713 </v>
   <v>       0.16666667       0.29831291       0.08567570 </v>
   <v>       0.50000000       0.29831291       0.08567570 </v>
   <v>       0.83333333       0.29831291       0.08567570 </v>
   <v>       0.00000000       0.93025757       0.04045561 </v>
   <v>       0.33333333       0.93025757       0.04045561 </v>
   <v>       0.66666667       0.93025757       0.04045561 </v>
   <v>       0.16666667       0.56974243       0.11188419 </v>
   <v>       0.50000000       0.56974243       0.11188419 </v>
   <v>       0.83333333       0.56974243       0.11188419 </v>
   <v>       0.16666667       0.70168709       0.01424713 </v>
   <v>       0.50000000       0.70168709       0.01424713 </v>
   <v>       0.83333333       0.70168709       0.01424713 </v>
   <v>       0.00000000       0.79831291       0.08567570 </v>
   <v>       0.33333333       0.79831291       0.08567570 </v>
   <v>       0.66666667       0.79831291       0.08567570 </v>
   <v>       0.16669640       0.42954238       0.18298334 </v>
   <v>       0.49997026       0.42954238       0.18298334 </v>
   <v>       0.83333333       0.42954006       0.18296245 </v>
   <v>       0.99997026       0.06976991       0.25479818 </v>
   <v>       0.33333333       0.06980215       0.25479800 </v>
   <v>       0.66669640       0.06976991       0.25479818 </v>
   <v>       0.00000794       0.20066007       0.15734632 </v>
   <v>       0.33333333       0.20064728       0.15734033 </v>
   <v>       0.66665873       0.20066007       0.15734632 </v>
   <v>       0.16667829       0.29855994       0.22849049 </v>
   <v>       0.49998837       0.29855994       0.22849049 </v>
   <v>       0.83333333       0.29862294       0.22846273 </v>
   <v>       0.99998618       0.92953973       0.18297505 </v>
   <v>       0.33333333       0.92952528       0.18296888 </v>
   <v>       0.66668049       0.92953973       0.18297505 </v>
   <v>       0.16676898       0.56987302       0.25482168 </v>
   <v>       0.49989769       0.56987302       0.25482168 </v>
   <v>       0.83333333       0.56990605       0.25476601 </v>
   <v>       0.16666208       0.70066671       0.15734632 </v>
   <v>       0.50000459       0.70066671       0.15734632 </v>
   <v>       0.83333333       0.70062611       0.15734402 </v>
   <v>       0.00000356       0.79860650       0.22848584 </v>
   <v>       0.33333333       0.79861133       0.22847364 </v>
   <v>       0.66666311       0.79860650       0.22848584 </v>
   <v>       0.16660371       0.42996857       0.32624422 </v>
   <v>       0.50006296       0.42996857       0.32624422 </v>
   <v>       0.83333333       0.42976652       0.32613369 </v>
   <v>       0.99980629       0.06954473       0.39765914 </v>
   <v>       0.33333333       0.06954570       0.39767351 </v>
   <v>       0.66686037       0.06954473       0.39765914 </v>
   <v>       0.00004364       0.20162795       0.29994576 </v>
   <v>       0.33333333       0.20159960       0.29996946 </v>
   <v>       0.66662302       0.20162795       0.29994576 </v>
   <v>       0.16661108       0.29795683       0.37145261 </v>
   <v>       0.50005559       0.29795683       0.37145261 </v>
   <v>       0.83333333       0.29774332       0.37121520 </v>
   <v>       0.00000533       0.93015354       0.32624890 </v>
   <v>       0.33333333       0.93013768       0.32625501 </v>
   <v>       0.66666134       0.93015354       0.32624890 </v>
   <v>       0.16576908       0.56904903       0.39761071 </v>
   <v>       0.50089759       0.56904903       0.39761071 </v>
   <v>       0.83333333       0.57045861       0.39732962 </v>
   <v>       0.16674396       0.70173299       0.30000325 </v>
   <v>       0.49992270       0.70173299       0.30000325 </v>
   <v>       0.83333333       0.70175249       0.29988963 </v>
   <v>       0.00010347       0.79786243       0.37134963 </v>
   <v>       0.33333333       0.79790369       0.37138139 </v>
   <v>       0.66656320       0.79786243       0.37134963 </v>
   <v>       0.16499889       0.42703001       0.46934339 </v>
   <v>       0.50166778       0.42703001       0.46934339 </v>
   <v>       0.83333333       0.42598120       0.46818859 </v>
   <v>       0.99989560       0.08091019       0.54234652 </v>
   <v>       0.33333333       0.08182427       0.54233150 </v>
   <v>       0.66677107       0.08091019       0.54234652 </v>
   <v>       0.99984016       0.20027599       0.44295641 </v>
   <v>       0.33333333       0.20018994       0.44308622 </v>
   <v>       0.66682651       0.20027599       0.44295641 </v>
   <v>       0.16480136       0.29261237       0.51611829 </v>
   <v>       0.50186531       0.29261237       0.51611829 </v>
   <v>       0.83333333       0.29850726       0.51433675 </v>
   <v>       0.00040865       0.92649584       0.46899161 </v>
   <v>       0.33333333       0.92673660       0.46893605 </v>
   <v>       0.66625802       0.92649584       0.46899161 </v>
   <v>       0.16298805       0.57576177       0.54252229 </v>
   <v>       0.50367861       0.57576177       0.54252229 </v>
   <v>       0.83333333       0.58714152       0.54107622 </v>
   <v>       0.16660989       0.69931847       0.44298275 </v>
   <v>       0.50005677       0.69931847       0.44298275 </v>
   <v>       0.83333333       0.70052514       0.44280726 </v>
   <v>       0.99920591       0.79085994       0.51505591 </v>
   <v>       0.33333333       0.79157813       0.51507306 </v>
   <v>       0.66746076       0.79085994       0.51505591 </v>
   <v>       0.16666667       0.09335570       0.05718144 </v>
   <v>       0.50000000       0.09335570       0.05718144 </v>
   <v>       0.83333333       0.09335570       0.05718144 </v>
   <v>       0.00000000       0.40664430       0.12861001 </v>
   <v>       0.33333333       0.40664430       0.12861001 </v>
   <v>       0.66666667       0.40664430       0.12861001 </v>
   <v>       0.00000000       0.59335570       0.05718144 </v>
   <v>       0.33333333       0.59335570       0.05718144 </v>
   <v>       0.66666667       0.59335570       0.05718144 </v>
   <v>       0.16666667       0.90664430       0.12861001 </v>
   <v>       0.50000000       0.90664430       0.12861001 </v>
   <v>       0.83333333       0.90664430       0.12861001 </v>
   <v>       0.16667193       0.09262087       0.20041820 </v>
   <v>       0.49999474       0.09262087       0.20041820 </v>
   <v>       0.83333333       0.09260852       0.20041448 </v>
   <v>       0.00002771       0.40685647       0.27151823 </v>
   <v>       0.33333333       0.40688518       0.27158433 </v>
   <v>       0.66663896       0.40685647       0.27151823 </v>
   <v>       0.00003799       0.59263511       0.20042899 </v>
   <v>       0.33333333       0.59260457       0.20041660 </v>
   <v>       0.66662867       0.59263511       0.20042899 </v>
   <v>       0.16666996       0.90680868       0.27156654 </v>
   <v>       0.49999670       0.90680868       0.27156654 </v>
   <v>       0.83333333       0.90684452       0.27155918 </v>
   <v>       0.16661336       0.09304958       0.34294758 </v>
   <v>       0.50005331       0.09304958       0.34294758 </v>
   <v>       0.83333333       0.09296327       0.34288440 </v>
   <v>       0.99936027       0.40646885       0.41377960 </v>
   <v>       0.33333333       0.40586737       0.41460950 </v>
   <v>       0.66730640       0.40646885       0.41377960 </v>
   <v>       0.99986884       0.59293199       0.34268683 </v>
   <v>       0.33333333       0.59281360       0.34307658 </v>
   <v>       0.66679782       0.59293199       0.34268683 </v>
   <v>       0.16674340       0.90618709       0.41416583 </v>
   <v>       0.49992327       0.90618709       0.41416583 </v>
   <v>       0.83333333       0.90635186       0.41418424 </v>
   <v>       0.16658174       0.08874177       0.48563760 </v>
   <v>       0.50008492       0.08874177       0.48563760 </v>
   <v>       0.83333333       0.08879617       0.48589421 </v>
   <v>       0.99562022       0.41522812       0.55254404 </v>
   <v>       0.33333333       0.41445614       0.54866996 </v>
   <v>       0.67104645       0.41522812       0.55254404 </v>
   <v>       0.99768565       0.58829363       0.48536669 </v>
   <v>       0.33333333       0.58821904       0.48557511 </v>
   <v>       0.66898102       0.58829363       0.48536669 </v>
   <v>       0.16570993       0.91593887       0.54757729 </v>
   <v>       0.50095673       0.91593887       0.54757729 </v>
   <v>       0.83333333       0.91452119       0.54796456 </v>
   <v>       0.83333333       0.41519463       0.63222272 </v>
   <v>       0.83333333       0.40745508       0.59886229 </v>
  </varray>
  <varray name="selective"  type="logical" >
   <v type="logical" >  F  F  F </v>
   <v type="logical" >  F  F  F </v>
   <v type="logical" >  F  F  F </v>
   <v type="logical" >  F  F  F </v>
   <v type="logical" >  F  F  F </v>
   <v type="logical" >  F  F  F </v>
   <v type="logical" >  F  F  F </v>
   <v type="logical" >  F  F  F </v>
   <v type="logical" >  F  F  F </v>
   <v type="logical" >  F  F  F </v>
   <v type="logical" >  F  F  F </v>
   <v type="logical" >  F  F  F </v>
   <v type="logical" >  F  F  F </v>
   <v type="logical" >  F  F  F </v>
   <v type="logical" >  F  F  F </v>
   <v type="logical" >  F  F  F </v>
   <v type="logical" >  F  F  F </v>
   <v type="logical" >  F  F  F </v>
   <v type="logical" >  F  F  F </v>
   <v type="logical" >  F  F  F </v>
   <v type="logical" >  F  F  F </v>
   <v type="logical" >  F  F  F </v>
   <v type="logical" >  F  F  F </v>
   <v type="logical" >  F  F  F </v>
   <v type="logical" >  T  T  T </v>
   <v type="logical" >  T  T  T </v>
   <v type="logical" >  T  T  T </v>
   <v type="logical" >  T  T  T </v>
   <v type="logical" >  T  T  T </v>
   <v type="logical" >  T  T  T </v>
   <v type="logical" >  T  T  T </v>
   <v type="logical" >  T  T  T </v>
   <v type="logical" >  T  T  T </v>
   <v type="logical" >  T  T  T </v>
   <v type="logical" >  T  T  T </v>
   <v type="logical" >  T  T  T </v>
   <v type="logical" >  T  T  T </v>
   <v type="logical" >  T  T  T </v>
   <v type="logical" >  T  T  T </v>
   <v type="logical" >  T  T  T </v>
   <v type="logical" >  T  T  T </v>
   <v type="logical" >  T  T  T </v>
   <v type="logical" >  T  T  T </v>
   <v type="logical" >  T  T  T </v>
   <v type="logical" >  T  T  T </v>
   <v type="logical" >  T  T  T </v>
   <v type="logical" >  T  T  T </v>
   <v type="logical" >  T  T  T </v>
   <v type="logical" >  T  T  T </v>
   <v type="logical" >  T  T  T </v>
   <v type="logical" >  T  T  T </v>
   <v type="logical" >  T  T  T </v>
   <v type="logical" >  T  T  T </v>
   <v type="logical" >  T  T  T </v>
   <v type="logical" >  T  T  T </v>
   <v type="logical" >  T  T  T </v>
   <v type="logical" >  T  T  T </v>
   <v type="logical" >  T  T  T </v>
   <v type="logical" >  T  T  T </v>
   <v type="logical" >  T  T  T </v>
   <v type="logical" >  T  T  T </v>
   <v type="logical" >  T  T  T </v>
   <v type="logical" >  T  T  T </v>
   <v type="logical" >  T  T  T </v>
   <v type="logical" >  T  T  T </v>
   <v type="logical" >  T  T  T </v>
   <v type="logical" >  T  T  T </v>
   <v type="logical" >  T  T  T </v>
   <v type="logical" >  T  T  T </v>
   <v type="logical" >  T  T  T </v>
   <v type="logical" >  T  T  T </v>
   <v type="logical" >  T  T  T </v>
   <v type="logical" >  T  T  T </v>
   <v type="logical" >  T  T  T </v>
   <v type="logical" >  T  T  T </v>
   <v type="logical" >  T  T  T </v>
   <v type="logical" >  T  T  T </v>
   <v type="logical" >  T  T  T </v>
   <v type="logical" >  T  T  T </v>
   <v type="logical" >  T  T  T </v>
   <v type="logical" >  T  T  T </v>
   <v type="logical" >  T  T  T </v>
   <v type="logical" >  T  T  T </v>
   <v type="logical" >  T  T  T </v>
   <v type="logical" >  T  T  T </v>
   <v type="logical" >  T  T  T </v>
   <v type="logical" >  T  T  T </v>
   <v type="logical" >  T  T  T </v>
   <v type="logical" >  T  T  T </v>
   <v type="logical" >  T  T  T </v>
   <v type="logical" >  T  T  T </v>
   <v type="logical" >  T  T  T </v>
   <v type="logical" >  T  T  T </v>
   <v type="logical" >  T  T  T </v>
   <v type="logical" >  T  T  T </v>
   <v type="logical" >  T  T  T </v>
   <v type="logical" >  F  F  F </v>
   <v type="logical" >  F  F  F </v>
   <v type="logical" >  F  F  F </v>
   <v type="logical" >  F  F  F </v>
   <v type="logical" >  F  F  F </v>
   <v type="logical" >  F  F  F </v>
   <v type="logical" >  F  F  F </v>
   <v type="logical" >  F  F  F </v>
   <v type="logical" >  F  F  F </v>
   <v type="logical" >  F  F  F </v>
   <v type="logical" >  F  F  F </v>
   <v type="logical" >  F  F  F </v>
   <v type="logical" >  T  T  T </v>
   <v type="logical" >  T  T  T </v>
   <v type="logical" >  T  T  T </v>
   <v type="logical" >  T  T  T </v>
   <v type="logical" >  T  T  T </v>
   <v type="logical" >  T  T  T </v>
   <v type="logical" >  T  T  T </v>
   <v type="logical" >  T  T  T </v>
   <v type="logical" >  T  T  T </v>
   <v type="logical" >  T  T  T </v>
   <v type="logical" >  T  T  T </v>
   <v type="logical" >  T  T  T </v>
   <v type="logical" >  T  T  T </v>
   <v type="logical" >  T  T  T </v>
   <v type="logical" >  T  T  T </v>
   <v type="logical" >  T  T  T </v>
   <v type="logical" >  T  T  T </v>
   <v type="logical" >  T  T  T </v>
   <v type="logical" >  T  T  T </v>
   <v type="logical" >  T  T  T </v>
   <v type="logical" >  T  T  T </v>
   <v type="logical" >  T  T  T </v>
   <v type="logical" >  T  T  T </v>
   <v type="logical" >  T  T  T </v>
   <v type="logical" >  T  T  T </v>
   <v type="logical" >  T  T  T </v>
   <v type="logical" >  T  T  T </v>
   <v type="logical" >  T  T  T </v>
   <v type="logical" >  T  T  T </v>
   <v type="logical" >  T  T  T </v>
   <v type="logical" >  T  T  T </v>
   <v type="logical" >  T  T  T </v>
   <v type="logical" >  T  T  T </v>
   <v type="logical" >  T  T  T </v>
   <v type="logical" >  T  T  T </v>
   <v type="logical" >  T  T  T </v>
   <v type="logical" >  T  T  T </v>
   <v type="logical" >  T  T  T </v>
  </varray>
  <nose>
   <v>      -3.00000000       0.00000000       0.00010000       0.00010000 </v>
  </nose>
 </structure>
 <calculation>
  <scstep>
   <time name="dav">  159.25  159.39</time>
   <time name="total">  159.38  159.57</time>
   <energy>
    <i name="alphaZ">   3484.08420679 </i>
    <i name="ewald"> 436211.24944030 </i>
    <i name="hartreedc">-510155.38936558 </i>
    <i name="XCdc">   2103.10501160 </i>
    <i name="pawpsdc">  43909.88148551 </i>
    <i name="pawaedc"> -42527.99062902 </i>
    <i name="eentropy">     -0.00141702 </i>
    <i name="bandstr">  -5628.03471694 </i>
    <i name="atom">  77953.97170011 </i>
    <i name="e_fr_energy">   5350.87571576 </i>
    <i name="e_wo_entrp">   5350.87713278 </i>
    <i name="e_0_energy">   5350.87618810 </i>
   </energy>
  </scstep>
  <scstep>
   <time name="dav">  158.75  158.81</time>
   <time name="total">  158.76  158.81</time>
   <energy>
    <i name="e_fr_energy">   -861.34121077 </i>
    <i name="e_wo_entrp">   -861.35710255 </i>
    <i name="e_0_energy">   -861.34650803 </i>
   </energy>
  </scstep>
  <scstep>
   <time name="dav">  187.83  187.89</time>
   <time name="total">  187.84  187.90</time>
   <energy>
    <i name="e_fr_energy">  -1222.17138821 </i>
    <i name="e_wo_entrp">  -1222.16608076 </i>
    <i name="e_0_energy">  -1222.16961906 </i>
   </energy>
  </scstep>
  <scstep>
   <time name="dav">  197.07  197.14</time>
   <time name="total">  197.08  197.14</time>
   <energy>
    <i name="e_fr_energy">  -1232.72148954 </i>
    <i name="e_wo_entrp">  -1232.71361919 </i>
    <i name="e_0_energy">  -1232.71886609 </i>
   </energy>
  </scstep>
  <scstep>
   <time name="dav">  197.40  197.46</time>
   <time name="total">  201.61  201.67</time>
   <energy>
    <i name="e_fr_energy">  -1232.97853793 </i>
    <i name="e_wo_entrp">  -1232.97060272 </i>
    <i name="e_0_energy">  -1232.97589286 </i>
   </energy>
  </scstep>
  <scstep>
   <time name="dav">  238.82  238.90</time>
   <time name="total">  243.16  243.25</time>
   <energy>
    <i name="e_fr_energy">  -1409.54516817 </i>
    <i name="e_wo_entrp">  -1409.59637086 </i>
    <i name="e_0_energy">  -1409.56223574 </i>
   </energy>
  </scstep>
  <scstep>
   <time name="dav">  230.01  230.08</time>
   <time name="total">  234.35  234.43</time>
   <energy>
    <i name="e_fr_energy">  -1277.31207740 </i>
    <i name="e_wo_entrp">  -1277.35562253 </i>
    <i name="e_0_energy">  -1277.32659244 </i>
   </energy>
  </scstep>
  <scstep>
   <time name="dav">  214.34  214.41</time>
   <time name="total">  218.68  218.76</time>
   <energy>
    <i name="e_fr_energy">  -1198.58395478 </i>
    <i name="e_wo_entrp">  -1198.56580380 </i>
    <i name="e_0_energy">  -1198.57790445 </i>
   </energy>
  </scstep>
  <scstep>
   <time name="dav">  204.36  204.46</time>
   <time name="total">  208.70  208.80</time>
   <energy>
    <i name="e_fr_energy">  -1188.29952514 </i>
    <i name="e_wo_entrp">  -1188.35990151 </i>
    <i name="e_0_energy">  -1188.31965059 </i>
   </energy>
  </scstep>
  <scstep>
   <time name="dav">  186.48  186.54</time>
   <time name="total">  190.82  190.88</time>
   <energy>
    <i name="e_fr_energy">  -1181.76967343 </i>
    <i name="e_wo_entrp">  -1181.78689468 </i>
    <i name="e_0_energy">  -1181.77541385 </i>
   </energy>
  </scstep>
  <scstep>
   <time name="dav">  195.79  195.85</time>
   <time name="total">  200.13  200.19</time>
   <energy>
    <i name="e_fr_energy">  -1178.56245689 </i>
    <i name="e_wo_entrp">  -1178.50298919 </i>
    <i name="e_0_energy">  -1178.54263432 </i>
   </energy>
  </scstep>
  <scstep>
   <time name="dav">  175.24  175.30</time>
   <time name="total">  179.58  179.64</time>
   <energy>
    <i name="e_fr_energy">  -1178.32086335 </i>
    <i name="e_wo_entrp">  -1178.23352017 </i>
    <i name="e_0_energy">  -1178.29174896 </i>
   </energy>
  </scstep>
  <scstep>
   <time name="dav">  185.59  185.66</time>
   <time name="total">  189.93  190.00</time>
   <energy>
    <i name="e_fr_energy">  -1178.39585223 </i>
    <i name="e_wo_entrp">  -1178.33636271 </i>
    <i name="e_0_energy">  -1178.37602239 </i>
   </energy>
  </scstep>
  <scstep>
   <time name="dav">  200.20  200.26</time>
   <time name="total">  204.55  204.61</time>
   <energy>
    <i name="e_fr_energy">  -1178.17935015 </i>
    <i name="e_wo_entrp">  -1178.09730121 </i>
    <i name="e_0_energy">  -1178.15200050 </i>
   </energy>
  </scstep>
  <scstep>
   <time name="dav">  177.89  177.94</time>
   <time name="total">  182.30  182.36</time>
   <energy>
    <i name="e_fr_energy">  -1178.12993156 </i>
    <i name="e_wo_entrp">  -1178.05231377 </i>
    <i name="e_0_energy">  -1178.10405896 </i>
   </energy>
  </scstep>
  <scstep>
   <time name="dav">  182.35  182.40</time>
   <time name="total">  186.68  186.74</time>
   <energy>
    <i name="e_fr_energy">  -1178.13132628 </i>
    <i name="e_wo_entrp">  -1178.05643957 </i>
    <i name="e_0_energy">  -1178.10636405 </i>
   </energy>
  </scstep>
  <scstep>
   <time name="dav">  184.56  184.64</time>
   <time name="total">  188.90  188.99</time>
   <energy>
    <i name="e_fr_energy">  -1178.12941464 </i>
    <i name="e_wo_entrp">  -1178.05262936 </i>
    <i name="e_0_energy">  -1178.10381955 </i>
   </energy>
  </scstep>
  <scstep>
   <time name="dav">  179.71  179.77</time>
   <time name="total">  184.05  184.11</time>
   <energy>
    <i name="e_fr_energy">  -1178.12823696 </i>
    <i name="e_wo_entrp">  -1178.05340917 </i>
    <i name="e_0_energy">  -1178.10329436 </i>
   </energy>
  </scstep>
  <scstep>
   <time name="dav">  178.00  178.06</time>
   <time name="total">  182.33  182.40</time>
   <energy>
    <i name="e_fr_energy">  -1178.12940446 </i>
    <i name="e_wo_entrp">  -1178.05397671 </i>
    <i name="e_0_energy">  -1178.10426188 </i>
   </energy>
  </scstep>
  <scstep>
   <time name="dav">  181.75  181.89</time>
   <time name="total">  186.23  186.38</time>
   <energy>
    <i name="e_fr_energy">  -1178.12960478 </i>
    <i name="e_wo_entrp">  -1178.05434218 </i>
    <i name="e_0_energy">  -1178.10451725 </i>
   </energy>
  </scstep>
  <scstep>
   <time name="dav">  158.61  158.66</time>
   <time name="total">  162.93  162.99</time>
   <energy>
    <i name="e_fr_energy">  -1178.13032608 </i>
    <i name="e_wo_entrp">  -1178.05513050 </i>
    <i name="e_0_energy">  -1178.10526088 </i>
   </energy>
  </scstep>
  <scstep>
   <time name="dav">  151.33  151.37</time>
   <time name="total">  155.66  155.71</time>
   <energy>
    <i name="e_fr_energy">  -1178.13117565 </i>
    <i name="e_wo_entrp">  -1178.05593116 </i>
    <i name="e_0_energy">  -1178.10609416 </i>
   </energy>
  </scstep>
  <scstep>
   <time name="dav">  151.23  151.29</time>
   <time name="total">  155.55  155.61</time>
   <energy>
    <i name="e_fr_energy">  -1178.13215131 </i>
    <i name="e_wo_entrp">  -1178.05699126 </i>
    <i name="e_0_energy">  -1178.10709796 </i>
   </energy>
  </scstep>
  <scstep>
   <time name="dav">  123.09  123.13</time>
   <time name="total">  127.42  127.46</time>
   <energy>
    <i name="e_fr_energy">  -1178.13270375 </i>
    <i name="e_wo_entrp">  -1178.05754487 </i>
    <i name="e_0_energy">  -1178.10765079 </i>
   </energy>
  </scstep>
  <scstep>
   <time name="dav">  130.34  130.37</time>
   <time name="total">  134.66  134.70</time>
   <energy>
    <i name="e_fr_energy">  -1178.13307335 </i>
    <i name="e_wo_entrp">  -1178.05792481 </i>
    <i name="e_0_energy">  -1178.10802384 </i>
   </energy>
  </scstep>
  <scstep>
   <time name="dav">  118.40  118.44</time>
   <time name="total">  122.72  122.76</time>
   <energy>
    <i name="e_fr_energy">  -1178.13323796 </i>
    <i name="e_wo_entrp">  -1178.05808595 </i>
    <i name="e_0_energy">  -1178.10818729 </i>
   </energy>
  </scstep>
  <scstep>
   <time name="dav">  118.97  119.01</time>
   <time name="total">  123.29  123.33</time>
   <energy>
    <i name="e_fr_energy">  -1178.13334670 </i>
    <i name="e_wo_entrp">  -1178.05818961 </i>
    <i name="e_0_energy">  -1178.10829434 </i>
   </energy>
  </scstep>
  <scstep>
   <time name="dav">  118.64  118.71</time>
   <time name="total">  118.75  118.82</time>
   <energy>
    <i name="alphaZ">   3484.08420679 </i>
    <i name="ewald"> 436211.24944030 </i>
    <i name="hartreedc">-509937.37499264 </i>
    <i name="XCdc">   2089.91200548 </i>
    <i name="pawpsdc">  46703.11302679 </i>
    <i name="pawaedc"> -45508.33907356 </i>
    <i name="eentropy">     -0.07515856 </i>
    <i name="bandstr"> -12174.67458082 </i>
    <i name="atom">  77953.97170011 </i>
    <i name="e_fr_energy">  -1178.13342611 </i>
    <i name="e_wo_entrp">  -1178.05826755 </i>
    <i name="e_0_energy">  -1178.10837325 </i>
   </energy>
  </scstep>
  <structure>
   <crystal>
    <varray name="basis" >
     <v>       9.56655463       0.00000000       0.00000000 </v>
     <v>       0.00000000      11.22259975       0.00000000 </v>
     <v>       0.00000000       0.00000000      35.05095011 </v>
    </varray>
    <i name="volume">   3763.12656229 </i>
    <varray name="rec_basis" >
     <v>       0.10453084      -0.00000000       0.00000000 </v>
     <v>       0.00000000       0.08910591       0.00000000 </v>
     <v>      -0.00000000      -0.00000000       0.02852990 </v>
    </varray>
   </crystal>
   <varray name="positions" >
    <v>       0.16666667       0.43025757       0.04045561 </v>
    <v>       0.50000000       0.43025757       0.04045561 </v>
    <v>       0.83333333       0.43025757       0.04045561 </v>
    <v>       0.00000000       0.06974243       0.11188419 </v>
    <v>       0.33333333       0.06974243       0.11188419 </v>
    <v>       0.66666667       0.06974243       0.11188419 </v>
    <v>       0.00000000       0.20168709       0.01424713 </v>
    <v>       0.33333333       0.20168709       0.01424713 </v>
    <v>       0.66666667       0.20168709       0.01424713 </v>
    <v>       0.16666667       0.29831291       0.08567570 </v>
    <v>       0.50000000       0.29831291       0.08567570 </v>
    <v>       0.83333333       0.29831291       0.08567570 </v>
    <v>       0.00000000       0.93025757       0.04045561 </v>
    <v>       0.33333333       0.93025757       0.04045561 </v>
    <v>       0.66666667       0.93025757       0.04045561 </v>
    <v>       0.16666667       0.56974243       0.11188419 </v>
    <v>       0.50000000       0.56974243       0.11188419 </v>
    <v>       0.83333333       0.56974243       0.11188419 </v>
    <v>       0.16666667       0.70168709       0.01424713 </v>
    <v>       0.50000000       0.70168709       0.01424713 </v>
    <v>       0.83333333       0.70168709       0.01424713 </v>
    <v>       0.00000000       0.79831291       0.08567570 </v>
    <v>       0.33333333       0.79831291       0.08567570 </v>
    <v>       0.66666667       0.79831291       0.08567570 </v>
    <v>       0.16669640       0.42954238       0.18298334 </v>
    <v>       0.49997026       0.42954238       0.18298334 </v>
    <v>       0.83333333       0.42954006       0.18296245 </v>
    <v>       0.99997026       0.06976991       0.25479818 </v>
    <v>       0.33333333       0.06980215       0.25479800 </v>
    <v>       0.66669640       0.06976991       0.25479818 </v>
    <v>       0.00000794       0.20066007       0.15734632 </v>
    <v>       0.33333333       0.20064728       0.15734033 </v>
    <v>       0.66665873       0.20066007       0.15734632 </v>
    <v>       0.16667829       0.29855994       0.22849049 </v>
    <v>       0.49998837       0.29855994       0.22849049 </v>
    <v>       0.83333333       0.29862294       0.22846273 </v>
    <v>       0.99998618       0.92953973       0.18297505 </v>
    <v>       0.33333333       0.92952528       0.18296888 </v>
    <v>       0.66668049       0.92953973       0.18297505 </v>
    <v>       0.16676898       0.56987302       0.25482168 </v>
    <v>       0.49989769       0.56987302       0.25482168 </v>
    <v>       0.83333333       0.56990605       0.25476601 </v>
    <v>       0.16666208       0.70066671       0.15734632 </v>
    <v>       0.50000459       0.70066671       0.15734632 </v>
    <v>       0.83333333       0.70062611       0.15734402 </v>
    <v>       0.00000356       0.79860650       0.22848584 </v>
    <v>       0.33333333       0.79861133       0.22847364 </v>
    <v>       0.66666311       0.79860650       0.22848584 </v>
    <v>       0.16660371       0.42996857       0.32624422 </v>
    <v>       0.50006296       0.42996857       0.32624422 </v>
    <v>       0.83333333       0.42976652       0.32613369 </v>
    <v>       0.99980629       0.06954473       0.39765914 </v>
    <v>       0.33333333       0.06954570       0.39767351 </v>
    <v>       0.66686037       0.06954473       0.39765914 </v>
    <v>       0.00004364       0.20162795       0.29994576 </v>
    <v>       0.33333333       0.20159960       0.29996946 </v>
    <v>       0.66662302       0.20162795       0.29994576 </v>
    <v>       0.16661108       0.29795683       0.37145261 </v>
    <v>       0.50005559       0.29795683       0.37145261 </v>
    <v>       0.83333333       0.29774332       0.37121520 </v>
    <v>       0.00000533       0.93015354       0.32624890 </v>
    <v>       0.33333333       0.93013768       0.32625501 </v>
    <v>       0.66666134       0.93015354       0.32624890 </v>
    <v>       0.16576908       0.56904903       0.39761071 </v>
    <v>       0.50089759       0.56904903       0.39761071 </v>
    <v>       0.83333333       0.57045861       0.39732962 </v>
    <v>       0.16674396       0.70173299       0.30000325 </v>
    <v>       0.49992270       0.70173299       0.30000325 </v>
    <v>       0.83333333       0.70175249       0.29988963 </v>
    <v>       0.00010347       0.79786243       0.37134963 </v>
    <v>       0.33333333       0.79790369       0.37138139 </v>
    <v>       0.66656320       0.79786243       0.37134963 </v>
    <v>       0.16499889       0.42703001       0.46934339 </v>
    <v>       0.50166778       0.42703001       0.46934339 </v>
    <v>       0.83333333       0.42598120       0.46818859 </v>
    <v>       0.99989560       0.08091019       0.54234652 </v>
    <v>       0.33333333       0.08182427       0.54233150 </v>
    <v>       0.66677107       0.08091019       0.54234652 </v>
    <v>       0.99984016       0.20027599       0.44295641 </v>
    <v>       0.33333333       0.20018994       0.44308622 </v>
    <v>       0.66682651       0.20027599       0.44295641 </v>
    <v>       0.16480136       0.29261237       0.51611829 </v>
    <v>       0.50186531       0.29261237       0.51611829 </v>
    <v>       0.83333333       0.29850726       0.51433675 </v>
    <v>       0.00040865       0.92649584       0.46899161 </v>
    <v>       0.33333333       0.92673660       0.46893605 </v>
    <v>       0.66625802       0.92649584       0.46899161 </v>
    <v>       0.16298805       0.57576177       0.54252229 </v>
    <v>       0.50367861       0.57576177       0.54252229 </v>
    <v>       0.83333333       0.58714152       0.54107622 </v>
    <v>       0.16660989       0.69931847       0.44298275 </v>
    <v>       0.50005677       0.69931847       0.44298275 </v>
    <v>       0.83333333       0.70052514       0.44280726 </v>
    <v>       0.99920591       0.79085994       0.51505591 </v>
    <v>       0.33333333       0.79157813       0.51507306 </v>
    <v>       0.66746076       0.79085994       0.51505591 </v>
    <v>       0.16666667       0.09335570       0.05718144 </v>
    <v>       0.50000000       0.09335570       0.05718144 </v>
    <v>       0.83333333       0.09335570       0.05718144 </v>
    <v>       0.00000000       0.40664430       0.12861001 </v>
    <v>       0.33333333       0.40664430       0.12861001 </v>
    <v>       0.66666667       0.40664430       0.12861001 </v>
    <v>       0.00000000       0.59335570       0.05718144 </v>
    <v>       0.33333333       0.59335570       0.05718144 </v>
    <v>       0.66666667       0.59335570       0.05718144 </v>
    <v>       0.16666667       0.90664430       0.12861001 </v>
    <v>       0.50000000       0.90664430       0.12861001 </v>
    <v>       0.83333333       0.90664430       0.12861001 </v>
    <v>       0.16667193       0.09262087       0.20041820 </v>
    <v>       0.49999474       0.09262087       0.20041820 </v>
    <v>       0.83333333       0.09260852       0.20041448 </v>
    <v>       0.00002771       0.40685647       0.27151823 </v>
    <v>       0.33333333       0.40688518       0.27158433 </v>
    <v>       0.66663896       0.40685647       0.27151823 </v>
    <v>       0.00003799       0.59263511       0.20042899 </v>
    <v>       0.33333333       0.59260457       0.20041660 </v>
    <v>       0.66662867       0.59263511       0.20042899 </v>
    <v>       0.16666996       0.90680868       0.27156654 </v>
    <v>       0.49999670       0.90680868       0.27156654 </v>
    <v>       0.83333333       0.90684452       0.27155918 </v>
    <v>       0.16661336       0.09304958       0.34294758 </v>
    <v>       0.50005331       0.09304958       0.34294758 </v>
    <v>       0.83333333       0.09296327       0.34288440 </v>
    <v>       0.99936027       0.40646885       0.41377960 </v>
    <v>       0.33333333       0.40586737       0.41460950 </v>
    <v>       0.66730640       0.40646885       0.41377960 </v>
    <v>       0.99986884       0.59293199       0.34268683 </v>
    <v>       0.33333333       0.59281360       0.34307658 </v>
    <v>       0.66679782       0.59293199       0.34268683 </v>
    <v>       0.16674340       0.90618709       0.41416583 </v>
    <v>       0.49992327       0.90618709       0.41416583 </v>
    <v>       0.83333333       0.90635186       0.41418424 </v>
    <v>       0.16658174       0.08874177       0.48563760 </v>
    <v>       0.50008492       0.08874177       0.48563760 </v>
    <v>       0.83333333       0.08879617       0.48589421 </v>
    <v>       0.99562022       0.41522812       0.55254404 </v>
    <v>       0.33333333       0.41445614       0.54866996 </v>
    <v>       0.67104645       0.41522812       0.55254404 </v>
    <v>       0.99768565       0.58829363       0.48536669 </v>
    <v>       0.33333333       0.58821904       0.48557511 </v>
    <v>       0.66898102       0.58829363       0.48536669 </v>
    <v>       0.16570993       0.91593887       0.54757729 </v>
    <v>       0.50095673       0.91593887       0.54757729 </v>
    <v>       0.83333333       0.91452119       0.54796456 </v>
    <v>       0.83333333       0.41519463       0.63222272 </v>
    <v>       0.83333333       0.40745508       0.59886229 </v>
   </varray>
  </structure>
  <varray name="forces" >
   <v>       0.00053109       0.55622800      -0.75610534 </v>
   <v>      -0.00053109       0.55622800      -0.75610534 </v>
   <v>       0.00000000       0.55815989      -0.75236077 </v>
   <v>       0.00025161       0.05375264      -0.44346951 </v>
   <v>       0.00000000       0.05420051      -0.44634420 </v>
   <v>      -0.00025161       0.05375264      -0.44346951 </v>
   <v>      -0.00000537      -0.48179496       0.64158735 </v>
   <v>      -0.00000000      -0.48293419       0.64023443 </v>
   <v>       0.00000537      -0.48179496       0.64158735 </v>
   <v>      -0.00029327       0.03376124       0.09110519 </v>
   <v>       0.00029327       0.03376124       0.09110519 </v>
   <v>       0.00000000       0.03584330       0.08999407 </v>
   <v>       0.00054612       0.55634408      -0.75466049 </v>
   <v>       0.00000000       0.55769386      -0.75318979 </v>
   <v>      -0.00054612       0.55634408      -0.75466049 </v>
   <v>       0.00010941       0.05291299      -0.44133845 </v>
   <v>      -0.00010941       0.05291299      -0.44133845 </v>
   <v>       0.00000000       0.05254010      -0.44635938 </v>
   <v>      -0.00073245      -0.48208170       0.64069821 </v>
   <v>       0.00073245      -0.48208170       0.64069821 </v>
   <v>      -0.00000000      -0.48150594       0.64059131 </v>
   <v>      -0.00059480       0.03248311       0.09045541 </v>
   <v>       0.00000000       0.03447488       0.09082246 </v>
   <v>       0.00059480       0.03248311       0.09045541 </v>
   <v>      -0.00069378       0.01230786      -0.01292673 </v>
   <v>       0.00069378       0.01230786      -0.01292673 </v>
   <v>       0.00000000       0.01463082      -0.01513208 </v>
   <v>       0.00348747      -0.02208946      -0.01707147 </v>
   <v>      -0.00000000      -0.02170055      -0.01496202 </v>
   <v>      -0.00348747      -0.02208946      -0.01707147 </v>
   <v>       0.00005343       0.01198792       0.00947958 </v>
   <v>       0.00000000       0.01106757       0.00823385 </v>
   <v>      -0.00005343       0.01198792       0.00947958 </v>
   <v>       0.00245416      -0.02546609       0.02491508 </v>
   <v>      -0.00245416      -0.02546609       0.02491508 </v>
   <v>      -0.00000000      -0.02200655       0.02208704 </v>
   <v>       0.00142803       0.01188172      -0.01438915 </v>
   <v>       0.00000000       0.01206943      -0.01381901 </v>
   <v>      -0.00142803       0.01188172      -0.01438915 </v>
   <v>       0.00016562      -0.02081607      -0.01362968 </v>
   <v>      -0.00016562      -0.02081607      -0.01362968 </v>
   <v>      -0.00000000      -0.02188921      -0.02099046 </v>
   <v>       0.00074455       0.01097500       0.00928555 </v>
   <v>      -0.00074455       0.01097500       0.00928555 </v>
   <v>       0.00000000       0.01125279       0.00938076 </v>
   <v>       0.00093538      -0.02234727       0.02605221 </v>
   <v>      -0.00000000      -0.02254698       0.02503317 </v>
   <v>      -0.00093538      -0.02234727       0.02605221 </v>
   <v>       0.00074627       0.01408367      -0.01171846 </v>
   <v>      -0.00074627       0.01408367      -0.01171846 </v>
   <v>       0.00000000       0.01522640      -0.03609935 </v>
   <v>      -0.00176829      -0.02078304       0.00139195 </v>
   <v>      -0.00000000      -0.02044790       0.01756749 </v>
   <v>       0.00176829      -0.02078304       0.00139195 </v>
   <v>       0.00273532       0.00023490       0.02059663 </v>
   <v>      -0.00000000      -0.00122627       0.02289086 </v>
   <v>      -0.00273532       0.00023490       0.02059663 </v>
   <v>       0.01703206      -0.01951786       0.02969080 </v>
   <v>      -0.01703206      -0.01951786       0.02969080 </v>
   <v>      -0.00000000      -0.00969028       0.00945331 </v>
   <v>       0.00274913       0.02614845      -0.01405127 </v>
   <v>       0.00000000       0.02465235      -0.00357070 </v>
   <v>      -0.00274913       0.02614845      -0.01405127 </v>
   <v>      -0.00365532      -0.01485401      -0.01570190 </v>
   <v>       0.00365532      -0.01485401      -0.01570190 </v>
   <v>      -0.00000000      -0.01513184      -0.04798785 </v>
   <v>       0.00641833       0.00491149       0.02021946 </v>
   <v>      -0.00641833       0.00491149       0.02021946 </v>
   <v>       0.00000000       0.00297317       0.00943802 </v>
   <v>      -0.00153577      -0.00940470       0.02939888 </v>
   <v>      -0.00000000      -0.01059676       0.03553753 </v>
   <v>       0.00153577      -0.00940470       0.02939888 </v>
   <v>      -0.00185658       0.02401234      -0.00995731 </v>
   <v>       0.00185658       0.02401234      -0.00995731 </v>
   <v>       0.00000000       0.05474393      -0.11137946 </v>
   <v>      -0.01726657       0.06309269       0.08395954 </v>
   <v>       0.00000000       0.04349824       0.04570890 </v>
   <v>       0.01726657       0.06309269       0.08395954 </v>
   <v>      -0.00264558       0.01978286       0.03194386 </v>
   <v>       0.00000000       0.01459483       0.06439544 </v>
   <v>       0.00264558       0.01978286       0.03194386 </v>
   <v>      -0.01444423       0.01398693       0.08525099 </v>
   <v>       0.01444423       0.01398693       0.08525099 </v>
   <v>       0.00000000       0.00917691      -0.15920199 </v>
   <v>      -0.01373349       0.06792356       0.00466992 </v>
   <v>       0.00000000       0.05784966       0.01123006 </v>
   <v>       0.01373349       0.06792356       0.00466992 </v>
   <v>      -0.03743411      -0.05989292       0.04975400 </v>
   <v>       0.03743411      -0.05989292       0.04975400 </v>
   <v>      -0.00000000      -0.00451623       0.00138861 </v>
   <v>       0.00548775      -0.02291609       0.07376195 </v>
   <v>      -0.00548775      -0.02291609       0.07376195 </v>
   <v>      -0.00000000      -0.01009479       0.02437482 </v>
   <v>      -0.01565863       0.00608996       0.04703608 </v>
   <v>      -0.00000000      -0.01283463       0.06840990 </v>
   <v>       0.01565863       0.00608996       0.04703608 </v>
   <v>       0.00037238      -0.16295114       0.05962700 </v>
   <v>      -0.00037238      -0.16295114       0.05962700 </v>
   <v>      -0.00000000      -0.16466522       0.06050245 </v>
   <v>       0.00064251       0.01025271       0.32403746 </v>
   <v>       0.00000000       0.01530653       0.31444106 </v>
   <v>      -0.00064251       0.01025271       0.32403746 </v>
   <v>      -0.00113036      -0.16391298       0.05949150 </v>
   <v>      -0.00000000      -0.16437736       0.06068846 </v>
[...]
     <v>       0.00000000       0.08910591       0.00000000 </v>
     <v>      -0.00000000      -0.00000000       0.02852990 </v>
    </varray>
   </crystal>
   <varray name="positions" >
    <v>       0.16666667       0.43025757       0.04045561 </v>
    <v>       0.50000000       0.43025757       0.04045561 </v>
    <v>       0.83333333       0.43025757       0.04045561 </v>
    <v>       0.00000000       0.06974243       0.11188419 </v>
    <v>       0.33333333       0.06974243       0.11188419 </v>
    <v>       0.66666667       0.06974243       0.11188419 </v>
    <v>       0.00000000       0.20168709       0.01424713 </v>
    <v>       0.33333333       0.20168709       0.01424713 </v>
    <v>       0.66666667       0.20168709       0.01424713 </v>
    <v>       0.16666667       0.29831291       0.08567570 </v>
    <v>       0.50000000       0.29831291       0.08567570 </v>
    <v>       0.83333333       0.29831291       0.08567570 </v>
    <v>       0.00000000       0.93025757       0.04045561 </v>
    <v>       0.33333333       0.93025757       0.04045561 </v>
    <v>       0.66666667       0.93025757       0.04045561 </v>
    <v>       0.16666667       0.56974243       0.11188419 </v>
    <v>       0.50000000       0.56974243       0.11188419 </v>
    <v>       0.83333333       0.56974243       0.11188419 </v>
    <v>       0.16666667       0.70168709       0.01424713 </v>
    <v>       0.50000000       0.70168709       0.01424713 </v>
    <v>       0.83333333       0.70168709       0.01424713 </v>
    <v>       0.00000000       0.79831291       0.08567570 </v>
    <v>       0.33333333       0.79831291       0.08567570 </v>
    <v>       0.66666667       0.79831291       0.08567570 </v>
    <v>       0.16673073       0.42935817       0.18299813 </v>
    <v>       0.49993594       0.42935817       0.18299813 </v>
    <v>       0.83333333       0.42939942       0.18295109 </v>
    <v>       0.00009016       0.06935068       0.25489434 </v>
    <v>       0.33333333       0.06937303       0.25493098 </v>
    <v>       0.66657651       0.06935068       0.25489434 </v>
    <v>       0.00002360       0.20043356       0.15742591 </v>
    <v>       0.33333333       0.20043918       0.15740580 </v>
    <v>       0.66664307       0.20043356       0.15742591 </v>
    <v>       0.16683812       0.29818121       0.22860273 </v>
    <v>       0.49982855       0.29818121       0.22860273 </v>
    <v>       0.83333333       0.29833631       0.22855993 </v>
    <v>       0.00000351       0.92933180       0.18298051 </v>
    <v>       0.33333333       0.92928000       0.18297857 </v>
    <v>       0.66666316       0.92933180       0.18298051 </v>
    <v>       0.16685817       0.56949286       0.25494851 </v>
    <v>       0.49980849       0.56949286       0.25494851 </v>
    <v>       0.83333333       0.56941609       0.25478229 </v>
    <v>       0.16671213       0.70045987       0.15741756 </v>
    <v>       0.49995454       0.70045987       0.15741756 </v>
    <v>       0.83333333       0.70040985       0.15742249 </v>
    <v>       0.00011117       0.79845288       0.22864836 </v>
    <v>       0.33333333       0.79841828       0.22862815 </v>
    <v>       0.66655550       0.79845288       0.22864836 </v>
    <v>       0.16679723       0.42987881       0.32645994 </v>
    <v>       0.49986944       0.42987881       0.32645994 </v>
    <v>       0.83333333       0.42997040       0.32607005 </v>
    <v>       0.00003697       0.06932366       0.39810169 </v>
    <v>       0.33333333       0.06928990       0.39842238 </v>
    <v>       0.66662970       0.06932366       0.39810169 </v>
    <v>       0.00033903       0.20103298       0.30019372 </v>
    <v>       0.33333333       0.20102151       0.30024408 </v>
    <v>       0.66632764       0.20103298       0.30019372 </v>
    <v>       0.16753051       0.29763914       0.37171402 </v>
    <v>       0.49913616       0.29763914       0.37171402 </v>
    <v>       0.83333333       0.29794950       0.37120820 </v>
    <v>       0.00011580       0.93016376       0.32649162 </v>
    <v>       0.33333333       0.92998253       0.32664447 </v>
    <v>       0.66655087       0.93016376       0.32649162 </v>
    <v>       0.16601004       0.56981605       0.39803710 </v>
    <v>       0.50065663       0.56981605       0.39803710 </v>
    <v>       0.83333333       0.57093789       0.39713972 </v>
    <v>       0.16708018       0.70156293       0.30019829 </v>
    <v>       0.49958648       0.70156293       0.30019829 </v>
    <v>       0.83333333       0.70138310       0.29997725 </v>
    <v>       0.00036869       0.79808582       0.37177779 </v>
    <v>       0.33333333       0.79801928       0.37196881 </v>
    <v>       0.66629797       0.79808582       0.37177779 </v>
    <v>       0.16503080       0.42702940       0.46952316 </v>
    <v>       0.50163587       0.42702940       0.46952316 </v>
    <v>       0.83333333       0.42817356       0.46706546 </v>
    <v>       0.99781968       0.08608126       0.54311646 </v>
    <v>       0.33333333       0.08563265       0.54319613 </v>
    <v>       0.66884699       0.08608125       0.54311646 </v>
    <v>       0.00039469       0.20075272       0.44308745 </v>
    <v>       0.33333333       0.20045368       0.44358987 </v>
    <v>       0.66627198       0.20075272       0.44308745 </v>
    <v>       0.16702549       0.29149573       0.51592783 </v>
    <v>       0.49964118       0.29149573       0.51592783 </v>
    <v>       0.83333333       0.29847325       0.51166744 </v>
    <v>      -0.00019730       0.92725200       0.46958688 </v>
    <v>       0.33333333       0.92708965       0.46995349 </v>
    <v>       0.66686396       0.92725200       0.46958688 </v>
    <v>       0.16246718       0.57454650       0.54334516 </v>
    <v>       0.50419949       0.57454650       0.54334516 </v>
    <v>       0.83333333       0.58752177       0.54096846 </v>
    <v>       0.16743566       0.69945511       0.44366228 </v>
    <v>       0.49923101       0.69945511       0.44366228 </v>
    <v>       0.83333333       0.70033398       0.44285931 </v>
    <v>       0.99858784       0.79066841       0.51567467 </v>
    <v>       0.33333333       0.79059808       0.51634018 </v>
    <v>       0.66807883       0.79066841       0.51567467 </v>
    <v>       0.16666667       0.09335570       0.05718144 </v>
    <v>       0.50000000       0.09335570       0.05718144 </v>
    <v>       0.83333333       0.09335570       0.05718144 </v>
    <v>       0.00000000       0.40664430       0.12861001 </v>
    <v>       0.33333333       0.40664430       0.12861001 </v>
    <v>       0.66666667       0.40664430       0.12861001 </v>
    <v>       0.00000000       0.59335570       0.05718144 </v>
    <v>       0.33333333       0.59335570       0.05718144 </v>
    <v>       0.66666667       0.59335570       0.05718144 </v>
    <v>       0.16666667       0.90664430       0.12861001 </v>
    <v>       0.50000000       0.90664430       0.12861001 </v>
    <v>       0.83333333       0.90664430       0.12861001 </v>
    <v>       0.16671633       0.09244329       0.20047240 </v>
    <v>       0.49995034       0.09244329       0.20047240 </v>
    <v>       0.83333333       0.09244249       0.20048217 </v>
    <v>       0.00023201       0.40635507       0.27160772 </v>
    <v>       0.33333333       0.40643285       0.27173375 </v>
    <v>       0.66643466       0.40635507       0.27160772 </v>
    <v>       0.00010473       0.59253816       0.20048339 </v>
    <v>       0.33333333       0.59250210       0.20048295 </v>
    <v>       0.66656193       0.59253816       0.20048339 </v>
    <v>       0.16679380       0.90646681       0.27176596 </v>
    <v>       0.49987286       0.90646681       0.27176596 </v>
    <v>       0.83333333       0.90652523       0.27172501 </v>
    <v>       0.16686426       0.09282702       0.34331292 </v>
    <v>       0.49980241       0.09282702       0.34331292 </v>
    <v>       0.83333333       0.09283139       0.34313232 </v>
    <v>       0.00011534       0.40672048       0.41361058 </v>
    <v>       0.33333333       0.40609339       0.41495883 </v>
    <v>       0.66655132       0.40672048       0.41361058 </v>
    <v>       0.00023190       0.59312271       0.34274079 </v>
    <v>       0.33333333       0.59289987       0.34336791 </v>
    <v>       0.66643477       0.59312271       0.34274079 </v>
    <v>       0.16679423       0.90606832       0.41495206 </v>
    <v>       0.49987243       0.90606832       0.41495206 </v>
    <v>       0.83333333       0.90622379       0.41472833 </v>
    <v>       0.16643537       0.08878147       0.48624475 </v>
    <v>       0.50023130       0.08878147       0.48624475 </v>
    <v>       0.83333333       0.08970601       0.48609134 </v>
    <v>       0.99604788       0.41244241       0.55105418 </v>
    <v>       0.33333333       0.41284895       0.54894919 </v>
    <v>       0.67061879       0.41244241       0.55105418 </v>
    <v>       0.99771610       0.58871875       0.48548397 </v>
    <v>       0.33333333       0.58767594       0.48636888 </v>
    <v>       0.66895057       0.58871875       0.48548397 </v>
    <v>       0.16448352       0.91884028       0.54707428 </v>
    <v>       0.50218315       0.91884028       0.54707428 </v>
    <v>       0.83333333       0.91630767       0.54799288 </v>
    <v>       0.83333333       0.40812244       0.62887196 </v>
    <v>       0.83333333       0.39946469       0.59496098 </v>
   </varray>
  </structure>
  <varray name="forces" >
   <v>       0.00081776       0.55670080      -0.75507582 </v>
   <v>      -0.00081776       0.55670080      -0.75507582 </v>
   <v>       0.00000000       0.55835537      -0.75152851 </v>
   <v>       0.00023648       0.05171603      -0.43548103 </v>
   <v>       0.00000000       0.05018036      -0.43961375 </v>
   <v>      -0.00023648       0.05171603      -0.43548103 </v>
   <v>       0.00017342      -0.48315984       0.64280522 </v>
   <v>      -0.00000000      -0.48445991       0.64089759 </v>
   <v>      -0.00017342      -0.48315984       0.64280522 </v>
   <v>      -0.00041402       0.03193270       0.09514030 </v>
   <v>       0.00041402       0.03193270       0.09514030 </v>
   <v>       0.00000000       0.03475122       0.09345738 </v>
   <v>       0.00085189       0.55715509      -0.75229122 </v>
   <v>       0.00000000       0.55795780      -0.75106560 </v>
   <v>      -0.00085189       0.55715509      -0.75229122 </v>
   <v>       0.00040197       0.04845660      -0.43163551 </v>
   <v>      -0.00040197       0.04845660      -0.43163551 </v>
   <v>       0.00000000       0.05076253      -0.43754264 </v>
   <v>      -0.00062185      -0.48376181       0.64178920 </v>
   <v>       0.00062185      -0.48376181       0.64178920 </v>
   <v>      -0.00000000      -0.48334942       0.64195352 </v>
   <v>      -0.00070789       0.02957571       0.09417046 </v>
   <v>       0.00000000       0.03195779       0.09359199 </v>
   <v>       0.00070789       0.02957571       0.09417046 </v>
   <v>      -0.00043399       0.00305677       0.02601145 </v>
   <v>       0.00043399       0.00305677       0.02601145 </v>
   <v>       0.00000000       0.00241399       0.02595998 </v>
   <v>      -0.00039289      -0.00654651       0.00055182 </v>
   <v>      -0.00000000      -0.00471877      -0.00182790 </v>
   <v>       0.00039289      -0.00654651       0.00055182 </v>
   <v>      -0.00064248       0.02962259      -0.00783445 </v>
   <v>       0.00000000       0.02788209      -0.00673202 </v>
   <v>       0.00064248       0.02962259      -0.00783445 </v>
   <v>      -0.00173144      -0.00040800      -0.00813994 </v>
   <v>       0.00173144      -0.00040800      -0.00813994 </v>
   <v>       0.00000000      -0.00185878      -0.00518079 </v>
   <v>       0.00093902       0.00368843       0.02165267 </v>
   <v>       0.00000000       0.00681234       0.02015290 </v>
   <v>      -0.00093902       0.00368843       0.02165267 </v>
   <v>      -0.00035264      -0.00153811       0.00121536 </v>
   <v>       0.00035264      -0.00153811       0.00121536 </v>
   <v>      -0.00000000      -0.00256272       0.00798239 </v>
   <v>      -0.00130254       0.03066567      -0.00580541 </v>
   <v>       0.00130254       0.03066567      -0.00580541 </v>
   <v>       0.00000000       0.02984855      -0.00748537 </v>
   <v>      -0.00191081      -0.00970414      -0.01013092 </v>
   <v>      -0.00000000      -0.00805424      -0.00966673 </v>
   <v>       0.00191081      -0.00970414      -0.01013092 </v>
   <v>      -0.00228527       0.00221910       0.00146537 </v>
   <v>       0.00228527       0.00221910       0.00146537 </v>
   <v>      -0.00000000      -0.00317350       0.01104164 </v>
   <v>      -0.00705515      -0.03722481      -0.04929227 </v>
   <v>      -0.00000000      -0.03604932      -0.06005562 </v>
   <v>       0.00705515      -0.03722481      -0.04929227 </v>
   <v>      -0.00502992       0.01202054      -0.01260181 </v>
   <v>       0.00000000       0.01094890      -0.01985469 </v>
   <v>       0.00502992       0.01202054      -0.01260181 </v>
   <v>      -0.00907440      -0.00689353      -0.01647265 </v>
   <v>       0.00907440      -0.00689353      -0.01647265 </v>
   <v>      -0.00000000      -0.01250752      -0.00421248 </v>
   <v>      -0.00189938       0.00401917       0.00306857 </v>
   <v>       0.00000000       0.00886207      -0.00761461 </v>
   <v>       0.00189938       0.00401917       0.00306857 </v>
   <v>      -0.01109060      -0.05542820      -0.07095294 </v>
   <v>       0.01109060      -0.05542820      -0.07095294 </v>
   <v>      -0.00000000      -0.04609572      -0.03106757 </v>
   <v>       0.00185409       0.00096820      -0.01383398 </v>
   <v>      -0.00185409       0.00096820      -0.01383398 </v>
   <v>       0.00000000       0.00779970      -0.01061634 </v>
   <v>      -0.00110654       0.00256026       0.00425234 </v>
   <v>       0.00000000       0.00947834       0.00034895 </v>
   <v>       0.00110654       0.00256026       0.00425234 </v>
   <v>      -0.00889597       0.00025816      -0.00937657 </v>
   <v>       0.00889597       0.00025816      -0.00937657 </v>
   <v>      -0.00000000      -0.00797768       0.00138173 </v>
   <v>       0.00947657       0.00126035      -0.04285246 </v>
   <v>       0.00000000       0.00764890      -0.02057670 </v>
   <v>      -0.00947657       0.00126035      -0.04285246 </v>
   <v>       0.00710863       0.00249899       0.02229803 </v>
   <v>       0.00000000       0.00090141       0.01257839 </v>
   <v>      -0.00710863       0.00249899       0.02229803 </v>
   <v>      -0.09890880       0.07358485      -0.00819195 </v>
   <v>       0.09890880       0.07358485      -0.00819195 </v>
   <v>       0.00000000       0.13864501       0.18385671 </v>
   <v>       0.01181573      -0.04540366       0.02476793 </v>
   <v>      -0.00000000      -0.04818830       0.01671464 </v>
   <v>      -0.01181573      -0.04540366       0.02476793 </v>
   <v>      -0.03873889      -0.06847947      -0.02897724 </v>
   <v>       0.03873889      -0.06847947      -0.02897724 </v>
   <v>      -0.00000000      -0.09183734       0.03242571 </v>
   <v>      -0.01013260       0.00510642       0.05063515 </v>
   <v>       0.01013260       0.00510642       0.05063515 </v>
   <v>       0.00000000       0.01615024       0.03355274 </v>
   <v>       0.00322713       0.03124705       0.03663202 </v>
   <v>       0.00000000       0.03772923       0.08010187 </v>
   <v>      -0.00322713       0.03124705       0.03663202 </v>
   <v>       0.00003433      -0.16074480       0.05934669 </v>
   <v>      -0.00003433      -0.16074480       0.05934669 </v>
   <v>      -0.00000000      -0.16238972       0.06083073 </v>
   <v>       0.00391242      -0.00783258       0.33128058 </v>
   <v>       0.00000000      -0.00011475       0.31838856 </v>
   <v>      -0.00391242      -0.00783258       0.33128058 </v>
   <v>      -0.00182437      -0.16133620       0.06036982 </v>
   <v>      -0.00000000      -0.16360820       0.05891925 </v>
   <v>       0.00182437      -0.16133620       0.06036982 </v>
   <v>       0.00105890       0.00017481       0.32280281 </v>
   <v>      -0.00105890       0.00017481       0.32280281 </v>
   <v>       0.00000000       0.00024966       0.32898248 </v>
   <v>       0.00009631      -0.02135436       0.02676680 </v>
   <v>      -0.00009631      -0.02135436       0.02676680 </v>
   <v>      -0.00000000      -0.01888427       0.02625976 </v>
   <v>      -0.00453633       0.01286006       0.02217590 </v>
   <v>       0.00000000       0.01485182       0.01736930 </v>
   <v>       0.00453633       0.01286006       0.02217590 </v>
   <v>       0.00040393      -0.01832917       0.02410537 </v>
   <v>      -0.00000000      -0.02166198       0.02142737 </v>
   <v>      -0.00040393      -0.01832917       0.02410537 </v>
   <v>      -0.00240546       0.00934190       0.02089095 </v>
   <v>       0.00240546       0.00934190       0.02089095 </v>
   <v>       0.00000000       0.01105532       0.02335803 </v>
   <v>      -0.00579399      -0.01074081       0.05839510 </v>
   <v>       0.00579399      -0.01074081       0.05839510 </v>
   <v>      -0.00000000      -0.00565895       0.06925703 </v>
   <v>      -0.02888326       0.05545414      -0.01407559 </v>
   <v>       0.00000000       0.05423309      -0.04331203 </v>
   <v>       0.02888326       0.05545414      -0.01407559 </v>
   <v>      -0.01071288      -0.01041794       0.07578691 </v>
   <v>      -0.00000000      -0.00477194       0.05761816 </v>
   <v>       0.01071288      -0.01041794       0.07578691 </v>
   <v>       0.00095041       0.02316232      -0.05276742 </v>
   <v>      -0.00095041       0.02316232      -0.05276742 </v>
   <v>       0.00000000       0.04256471      -0.06872538 </v>
   <v>      -0.00822709       0.05323486       0.01662494 </v>
   <v>       0.00822709       0.05323486       0.01662494 </v>
   <v>       0.00000000       0.03994114      -0.02674943 </v>
   <v>      -0.01954840      -0.06478801      -0.05721335 </v>
   <v>       0.00000000       0.00407706       0.02888071 </v>
   <v>       0.01954840      -0.06478801      -0.05721335 </v>
   <v>      -0.00072320      -0.04095778       0.03314059 </v>
   <v>       0.00000000       0.01837063      -0.00994026 </v>
   <v>       0.00072320      -0.04095778       0.03314059 </v>
   <v>       0.00576382       0.01485902      -0.02994506 </v>
   <v>      -0.00576382       0.01485902      -0.02994506 </v>
   <v>       0.00000000       0.02361568      -0.01114686 </v>
   <v>      -0.00000000      -0.10199032       0.04174790 </v>
   <v>       0.00000000       0.00716670      -0.03491165 </v>
  </varray>
  <varray name="stress" >
   <v>     -18.35754752      -0.00000000      -0.00000000 </v>
   <v>      -0.00000000     -17.63782601       0.91844620 </v>
   <v>      -0.00000000       0.91844593     -12.85809703 </v>
  </varray>
  <energy>
   <i name="e_fr_energy">  -1178.23030142 </i>
   <i name="e_wo_entrp">  -1178.20622606 </i>
   <i name="e_0_energy">     -0.07222607 </i>
  </energy>
  <time name="totalsc"> 1820.69 1821.44</time>
 </calculation>
 <calculation>
  <scstep>
   <time name="dav">  131.80  131.85</time>
   <time name="total">  136.12  136.23</time>
   <energy>
    <i name="alphaZ">   3484.08420679 </i>
    <i name="ewald"> 436278.29335520 </i>
    <i name="hartreedc">-509994.91569445 </i>
    <i name="XCdc">   2089.85223621 </i>
    <i name="pawpsdc">  46698.34349777 </i>
    <i name="pawaedc"> -45503.92252314 </i>
    <i name="eentropy">     -0.07231998 </i>
    <i name="bandstr"> -12183.85806812 </i>
    <i name="atom">  77953.97170011 </i>
    <i name="e_fr_energy">  -1178.22360960 </i>
    <i name="e_wo_entrp">  -1178.15128962 </i>
    <i name="e_0_energy">  -1178.19950294 </i>
   </energy>
  </scstep>
  <scstep>
