 vasp.5.4.4.18Apr17-6-g9f103f2a35 (build Feb 10 2023 18:30:45) complex          
  
 executed on             LinuxIFC date 2023.05.11  23:56:33
 running on   16 total cores
 distrk:  each k-point on   16 cores,    1 groups
 distr:  one band on NCORES_PER_BAND=   1 cores,   16 groups


--------------------------------------------------------------------------------------------------------


 INCAR:
 POTCAR:    PAW_PBE Sn 08Apr2002                  
 POTCAR:    PAW_PBE Pt_pv 12Dec2005               

 ----------------------------------------------------------------------------- 
|                                                                             |
|           W    W    AA    RRRRR   N    N  II  N    N   GGGG   !!!           |
|           W    W   A  A   R    R  NN   N  II  NN   N  G    G  !!!           |
|           W    W  A    A  R    R  N N  N  II  N N  N  G       !!!           |
|           W WW W  AAAAAA  RRRRR   N  N N  II  N  N N  G  GGG   !            |
|           WW  WW  A    A  R   R   N   NN  II  N   NN  G    G                |
|           W    W  A    A  R    R  N    N  II  N    N   GGGG   !!!           |
|                                                                             |
|      For optimal performance we recommend to set                            |
|        NCORE= 4 - approx SQRT( number of cores)                             |
|      NCORE specifies how many cores store one orbital (NPAR=cpu/NCORE).     |
|      This setting can  greatly improve the performance of VASP for DFT.     |
|      The default,   NCORE=1            might be grossly inefficient         |
|      on modern multi-core architectures or massively parallel machines.     |
|      Do your own testing !!!!                                               |
|      Unfortunately you need to use the default for GW and RPA calculations. |
|      (for HF NCORE is supported but not extensively tested yet)             |
|                                                                             |
 ----------------------------------------------------------------------------- 

 POTCAR:    PAW_PBE Sn 08Apr2002                  
   VRHFIN =Sn: s2p2                                                             
   LEXCH  = PE                                                                  
   EATOM  =    94.0860 eV,    6.9151 Ry                                         
                                                                                
   TITEL  = PAW_PBE Sn 08Apr2002                                                
   LULTRA =        F    use ultrasoft PP ?                                      
   IUNSCR =        1    unscreen: 0-lin 1-nonlin 2-no                           
   RPACOR =    2.000    partial core radius                                     
   POMASS =  118.710; ZVAL   =    4.000    mass and valenz                      
   RCORE  =    3.000    outmost cutoff radius                                   
   RWIGS  =    2.960; RWIGS  =    1.566    wigner-seitz radius (au A)           
   ENMAX  =  103.236; ENMIN  =   77.427 eV                                      
   ICORE  =        3    local potential                                         
   LCOR   =        T    correct aug charges                                     
   LPAW   =        T    paw PP                                                  
   EAUG   =  263.585                                                            
   DEXC   =    0.000                                                            
   RMAX   =    3.078    core radius for proj-oper                               
   RAUG   =    1.300    factor for augmentation sphere                          
   RDEP   =    3.022    radius for radial grids                                 
   RDEPT  =    2.655    core radius for aug-charge                              
                                                                                
   Atomic configuration                                                         
   13 entries                                                                   
     n  l   j            E        occ.                                          
     1  0  0.50    -29007.2859   2.0000                                         
     2  0  0.50     -4378.8056   2.0000                                         
     2  1  1.50     -3930.4293   6.0000                                         
     3  0  0.50      -845.0264   2.0000                                         
     3  1  1.50      -698.5725   6.0000                                         
     3  2  2.50      -473.2839  10.0000                                         
     4  0  0.50      -133.9036   2.0000                                         
     4  1  1.50       -89.6752   6.0000                                         
     4  2  2.50       -25.8375  10.0000                                         
     5  0  0.50       -10.5484   2.0000                                         
     5  1  0.50        -3.6940   2.0000                                         
     5  2  1.50        -1.3606   0.0000                                         
     4  3  2.50        -4.0817   0.0000                                         
   Description                                                                  
     l       E           TYP  RCUT    TYP  RCUT                                 
     0    -10.5483727     23  3.000                                             
     0     27.2116520     23  3.000                                             
     1     -3.6939829     23  3.000                                             
     1      1.9821976     23  3.000                                             
     2     -1.3605826     23  3.000                                             
     3     -2.7211652     23  3.000                                             
  local pseudopotential read in
  partial core-charges read in
  partial kinetic energy density read in
  atomic valenz-charges read in
  non local Contribution for L=           0  read in
    real space projection operators read in
  non local Contribution for L=           0  read in
    real space projection operators read in
  non local Contribution for L=           1  read in
    real space projection operators read in
  non local Contribution for L=           1  read in
    real space projection operators read in
  non local Contribution for L=           2  read in
    real space projection operators read in
    PAW grid and wavefunctions read in
 
   number of l-projection  operators is LMAX  =           5
   number of lm-projection operators is LMMAX =          13
 
 POTCAR:    PAW_PBE Pt_pv 12Dec2005               
   VRHFIN =Pt: 5ps1d9                                                           
   LEXCH  = PE                                                                  
   EATOM  =  2428.2504 eV,  178.4714 Ry                                         
                                                                                
   TITEL  = PAW_PBE Pt_pv 12Dec2005                                             
   LULTRA =        F    use ultrasoft PP ?                                      
   IUNSCR =        1    unscreen: 0-lin 1-nonlin 2-no                           
   RPACOR =    2.000    partial core radius                                     
   POMASS =  195.080; ZVAL   =   16.000    mass and valenz                      
   RCORE  =    2.200    outmost cutoff radius                                   
   RWIGS  =    2.200; RWIGS  =    1.164    wigner-seitz radius (au A)           
   ENMAX  =  294.607; ENMIN  =  220.955 eV                                      
   ICORE  =        3    local potential                                         
   LCOR   =        T    correct aug charges                                     
   LPAW   =        T    paw PP                                                  
   EAUG   =  527.014                                                            
   DEXC   =    0.000                                                            
   RMAX   =    2.247    core radius for proj-oper                               
   RAUG   =    1.300    factor for augmentation sphere                          
   RDEP   =    2.279    radius for radial grids                                 
   RDEPT  =    1.878    core radius for aug-charge                              
                                                                                
   Atomic configuration                                                         
   16 entries                                                                   
     n  l   j            E        occ.                                          
     1  0  0.50    -78401.1885   2.0000                                         
     2  0  0.50    -13770.7750   2.0000                                         
     2  1  1.50    -11931.0468   6.0000                                         
     3  0  0.50     -3234.7234   2.0000                                         
     3  1  1.50     -2699.2216   6.0000                                         
     3  2  2.50     -2119.5714  10.0000                                         
     4  0  0.50      -695.1528   2.0000                                         
     4  1  1.50      -519.6034   6.0000                                         
     4  2  2.50      -306.6786  10.0000                                         
     4  3  3.50       -70.1041  14.0000                                         
     5  0  0.50      -101.7747   2.0000                                         
     5  1  1.50       -55.9873   6.0000                                         
     6  1  1.50        -6.8029   0.0000                                         
     5  2  2.50        -6.1423   9.0000                                         
     6  0  0.50        -5.6573   1.0000                                         
     5  3  2.50        -1.3606   0.0000                                         
   Description                                                                  
     l       E           TYP  RCUT    TYP  RCUT                                 
     1    -55.9873477     23  2.000                                             
     1     27.2116520     23  2.000                                             
     2     -6.1423404     23  2.200                                             
     2     -4.6754623     23  2.200                                             
     0     -5.6573207     23  2.200                                             
     0     47.6203910     23  2.200                                             
     3      6.8029130     23  2.200                                             
  local pseudopotential read in
  partial core-charges read in
  partial kinetic energy density read in
  atomic valenz-charges read in
  non local Contribution for L=           1  read in
    real space projection operators read in
  non local Contribution for L=           1  read in
    real space projection operators read in
  non local Contribution for L=           2  read in
    real space projection operators read in
  non local Contribution for L=           2  read in
    real space projection operators read in
  non local Contribution for L=           0  read in
    real space projection operators read in
  non local Contribution for L=           0  read in
    real space projection operators read in
    PAW grid and wavefunctions read in
 
   number of l-projection  operators is LMAX  =           6
   number of lm-projection operators is LMMAX =          18
 
  PAW_PBE Sn 08Apr2002                  :
 energy of atom  1       EATOM=  -94.0860
 kinetic energy error for atom=    0.0000 (will be added to EATOM!!)
  PAW_PBE Pt_pv 12Dec2005               :
 energy of atom  2       EATOM=-2428.2504
 kinetic energy error for atom=    0.0133 (will be added to EATOM!!)
 
 
 POSCAR: generated by phonopy                    
  positions in direct lattice
  velocities in cartesian coordinates
 exchange correlation table for  LEXCH =        8
   RHO(1)=    0.500       N(1)  =     2000
   RHO(2)=  100.500       N(2)  =     4000

 VTST: version 3.2, (02/03/18)

 CHAIN: initializing optimizer
 
 OPT: Using VASP QUASI-newton optimizer
 CHAIN: Read ICHAIN            0
 
 POSCAR: generated by phonopy                    
  positions in direct lattice
  velocities in cartesian coordinates
 


--------------------------------------------------------------------------------------------------------


 ion  position               nearest neighbor table
   1  0.500  0.000  0.500-   2 2.87   3 2.87   4 2.87   3 2.87   4 2.87   2 2.87   4 2.87   4 2.87
                             2 2.87   3 2.87   3 2.87   2 2.87
   2  0.000  0.500  0.500-   1 2.87   1 2.87   1 2.87   1 2.87
   3  0.000  0.000  0.000-   1 2.87   1 2.87   1 2.87   1 2.87
   4  0.500  0.500  0.000-   1 2.87   1 2.87   1 2.87   1 2.87
 
  LATTYP: Found a simple cubic cell.
 ALAT       =     4.0567154703
  
  Lattice vectors:
  
 A1 = (   4.0567154703,   0.0000000000,   0.0000000000)
 A2 = (   0.0000000000,   4.0567154703,   0.0000000000)
 A3 = (   0.0000000000,   0.0000000000,   4.0567154703)


Analysis of symmetry for initial positions (statically):
=====================================================================
 Subroutine PRICEL returns:
 Original cell was already a primitive cell.
 

 Routine SETGRP: Setting up the symmetry group for a 
 simple cubic supercell.


 Subroutine GETGRP returns: Found 48 space group operations
 (whereof 16 operations were pure point group operations)
 out of a pool of 48 trial point group operations.


The static configuration has the point symmetry D_4h.
 The point group associated with its full space group is O_h .


Analysis of symmetry for dynamics (positions and initial velocities):
=====================================================================
 Subroutine PRICEL returns:
 Original cell was already a primitive cell.
 

 Routine SETGRP: Setting up the symmetry group for a 
 simple cubic supercell.


 Subroutine GETGRP returns: Found 48 space group operations
 (whereof 16 operations were pure point group operations)
 out of a pool of 48 trial point group operations.


The dynamic configuration has the point symmetry D_4h.
 The point group associated with its full space group is O_h .


 Subroutine INISYM returns: Found 48 space group operations
 (whereof 16 operations are pure point group operations),
 and found     1 'primitive' translations

 
 
 KPOINTS: Automatic mesh                          

Automatic generation of k-mesh.
Space group operators:
 irot       det(A)        alpha          n_x          n_y          n_z        tau_x        tau_y        tau_z
    1     1.000000     0.000001     1.000000     0.000000     0.000000     0.000000     0.000000     0.000000
    2    -1.000000     0.000001     1.000000     0.000000     0.000000     0.000000     0.000000     0.000000
    3     1.000000    90.000000     0.000000     1.000000     0.000000     0.000000     0.000000     0.000000
    4    -1.000000    90.000000     0.000000     1.000000     0.000000     0.000000     0.000000     0.000000
    5     1.000000   180.000000     0.000000     0.000000     1.000000     0.000000     0.000000     0.000000
    6    -1.000000   180.000000     0.000000     0.000000     1.000000     0.000000     0.000000     0.000000
    7     1.000000   180.000000     0.707107     0.000000     0.707107     0.000000     0.000000     0.000000
    8    -1.000000   180.000000     0.707107     0.000000     0.707107     0.000000     0.000000     0.000000
    9     1.000000   180.000000     1.000000     0.000000     0.000000     0.000000     0.000000     0.000000
   10    -1.000000   180.000000     1.000000     0.000000     0.000000     0.000000     0.000000     0.000000
   11     1.000000    90.000000     0.000000    -1.000000     0.000000     0.000000     0.000000     0.000000
   12    -1.000000    90.000000     0.000000    -1.000000     0.000000     0.000000     0.000000     0.000000
   13     1.000000   180.000000     0.000000     1.000000     0.000000     0.000000     0.000000     0.000000
   14    -1.000000   180.000000     0.000000     1.000000     0.000000     0.000000     0.000000     0.000000
   15     1.000000   180.000000     0.707107     0.000000    -0.707107     0.000000     0.000000     0.000000
   16    -1.000000   180.000000     0.707107     0.000000    -0.707107     0.000000     0.000000     0.000000
   17     1.000000   120.000000    -0.577350    -0.577350    -0.577350     0.000000     0.500000     0.500000
   18    -1.000000   120.000000    -0.577350    -0.577350    -0.577350     0.000000     0.500000     0.500000
   19     1.000000   120.000000     0.577350     0.577350     0.577350     0.500000     0.500000     0.000000
   20    -1.000000   120.000000     0.577350     0.577350     0.577350     0.500000     0.500000     0.000000
   21     1.000000    90.000000     0.000000     0.000000    -1.000000     0.500000     0.500000     0.000000
   22    -1.000000    90.000000     0.000000     0.000000    -1.000000     0.500000     0.500000     0.000000
   23     1.000000   180.000000     0.000000     0.707107     0.707107     0.000000     0.500000     0.500000
   24    -1.000000   180.000000     0.000000     0.707107     0.707107     0.000000     0.500000     0.500000
   25     1.000000   120.000000    -0.577350     0.577350     0.577350     0.000000     0.500000     0.500000
   26    -1.000000   120.000000    -0.577350     0.577350     0.577350     0.000000     0.500000     0.500000
   27     1.000000   120.000000    -0.577350     0.577350    -0.577350     0.500000     0.500000     0.000000
   28    -1.000000   120.000000    -0.577350     0.577350    -0.577350     0.500000     0.500000     0.000000
   29     1.000000    90.000000     0.000000     0.000000     1.000000     0.500000     0.500000     0.000000
   30    -1.000000    90.000000     0.000000     0.000000     1.000000     0.500000     0.500000     0.000000
   31     1.000000    90.000000    -1.000000     0.000000     0.000000     0.000000     0.500000     0.500000
   32    -1.000000    90.000000    -1.000000     0.000000     0.000000     0.000000     0.500000     0.500000
   33     1.000000   120.000000     0.577350    -0.577350     0.577350     0.000000     0.500000     0.500000
   34    -1.000000   120.000000     0.577350    -0.577350     0.577350     0.000000     0.500000     0.500000
   35     1.000000   120.000000    -0.577350    -0.577350     0.577350     0.500000     0.500000     0.000000
   36    -1.000000   120.000000    -0.577350    -0.577350     0.577350     0.500000     0.500000     0.000000
   37     1.000000   180.000000     0.707107     0.707107     0.000000     0.500000     0.500000     0.000000
   38    -1.000000   180.000000     0.707107     0.707107     0.000000     0.500000     0.500000     0.000000
   39     1.000000    90.000000     1.000000     0.000000     0.000000     0.000000     0.500000     0.500000
   40    -1.000000    90.000000     1.000000     0.000000     0.000000     0.000000     0.500000     0.500000
   41     1.000000   120.000000     0.577350    -0.577350    -0.577350     0.500000     0.500000     0.000000
   42    -1.000000   120.000000     0.577350    -0.577350    -0.577350     0.500000     0.500000     0.000000
   43     1.000000   120.000000     0.577350     0.577350    -0.577350     0.000000     0.500000     0.500000
   44    -1.000000   120.000000     0.577350     0.577350    -0.577350     0.000000     0.500000     0.500000
   45     1.000000   180.000000     0.000000    -0.707107     0.707107     0.000000     0.500000     0.500000
   46    -1.000000   180.000000     0.000000    -0.707107     0.707107     0.000000     0.500000     0.500000
   47     1.000000   180.000000     0.707107    -0.707107     0.000000     0.500000     0.500000     0.000000
   48    -1.000000   180.000000     0.707107    -0.707107     0.000000     0.500000     0.500000     0.000000
 
 Subroutine IBZKPT returns following result:
 ===========================================
 
 Found     20 irreducible k-points:
 
 Following reciprocal coordinates:
            Coordinates               Weight
  0.000000  0.000000  0.000000      1.000000
  0.142857  0.000000  0.000000      6.000000
  0.285714  0.000000  0.000000      6.000000
  0.428571  0.000000  0.000000      6.000000
  0.142857  0.142857  0.000000     12.000000
  0.285714  0.142857  0.000000     24.000000
  0.428571  0.142857  0.000000     24.000000
  0.285714  0.285714  0.000000     12.000000
  0.428571  0.285714  0.000000     24.000000
  0.428571  0.428571  0.000000     12.000000
  0.142857  0.142857  0.142857      8.000000
  0.285714  0.142857  0.142857     24.000000
  0.428571  0.142857  0.142857     24.000000
  0.285714  0.285714  0.142857     24.000000
  0.428571  0.285714  0.142857     48.000000
  0.428571  0.428571  0.142857     24.000000
  0.285714  0.285714  0.285714      8.000000
  0.428571  0.285714  0.285714     24.000000
  0.428571  0.428571  0.285714     24.000000
  0.428571  0.428571  0.428571      8.000000
 
 Following cartesian coordinates:
            Coordinates               Weight
  0.000000  0.000000  0.000000      1.000000
  0.035215  0.000000  0.000000      6.000000
  0.070430  0.000000  0.000000      6.000000
  0.105645  0.000000  0.000000      6.000000
  0.035215  0.035215  0.000000     12.000000
  0.070430  0.035215  0.000000     24.000000
  0.105645  0.035215  0.000000     24.000000
  0.070430  0.070430  0.000000     12.000000
  0.105645  0.070430  0.000000     24.000000
  0.105645  0.105645  0.000000     12.000000
  0.035215  0.035215  0.035215      8.000000
  0.070430  0.035215  0.035215     24.000000
  0.105645  0.035215  0.035215     24.000000
  0.070430  0.070430  0.035215     24.000000
  0.105645  0.070430  0.035215     48.000000
  0.105645  0.105645  0.035215     24.000000
  0.070430  0.070430  0.070430      8.000000
  0.105645  0.070430  0.070430     24.000000
  0.105645  0.105645  0.070430     24.000000
  0.105645  0.105645  0.105645      8.000000
 


--------------------------------------------------------------------------------------------------------




 Dimension of arrays:
   k-points           NKPTS =     20   k-points in BZ     NKDIM =     20   number of bands    NBANDS=     32
   number of dos      NEDOS =    301   number of ions     NIONS =      4
   non local maximal  LDIM  =      6   non local SUM 2l+1 LMDIM =     18
   total plane-waves  NPLWV =  13824
   max r-space proj   IRMAX =      1   max aug-charges    IRDMAX=  20129
   dimension x,y,z NGX =    24 NGY =   24 NGZ =   24
   dimension x,y,z NGXF=    48 NGYF=   48 NGZF=   48
   support grid    NGXF=    48 NGYF=   48 NGZF=   48
   ions per type =               1   3
   NGX,Y,Z   is equivalent  to a cutoff of   9.84,  9.84,  9.84 a.u.
   NGXF,Y,Z  is equivalent  to a cutoff of  19.67, 19.67, 19.67 a.u.

 SYSTEM =  High_opt                                
 POSCAR =  generated by phonopy                    

 Startparameter for this run:
   NWRITE =      2    write-flag & timer
   PREC   = normal    normal or accurate (medium, high low for compatibility)
   ISTART =      0    job   : 0-new  1-cont  2-samecut
   ICHARG =      2    charge: 1-file 2-atom 10-const
   ISPIN  =      1    spin polarized calculation?
   LNONCOLLINEAR =      F non collinear calculations
   LSORBIT =      F    spin-orbit coupling
   INIWAV =      1    electr: 0-lowe 1-rand  2-diag
   LASPH  =      F    aspherical Exc in radial PAW
   METAGGA=      F    non-selfconsistent MetaGGA calc.

 Electronic Relaxation 1
   ENCUT  =  520.0 eV  38.22 Ry    6.18 a.u.   7.54  7.54  7.54*2*pi/ulx,y,z
   ENINI  =  520.0     initial cutoff
   ENAUG  =  527.0 eV  augmentation charge cutoff
   NELM   =     60;   NELMIN=  2; NELMDL= -5     # of ELM steps 
   EDIFF  = 0.1E-05   stopping-criterion for ELM
   LREAL  =      F    real-space projection
   NLSPLINE    = F    spline interpolate recip. space projectors
   LCOMPAT=      F    compatible to vasp.4.4
   GGA_COMPAT  = T    GGA compatible to vasp.4.4-vasp.4.6
   LMAXPAW     = -100 max onsite density
   LMAXMIX     =    2 max onsite mixed and CHGCAR
   VOSKOWN=      0    Vosko Wilk Nusair interpolation
   ROPT   =    0.00000   0.00000
 Ionic relaxation
   EDIFFG = -.1E-01   stopping-criterion for IOM
   NSW    =    100    number of steps for IOM
   NBLOCK =      1;   KBLOCK =    100    inner block; outer block 
   IBRION =      1    ionic relax: 0-MD 1-quasi-New 2-CG
   NFREE  =      0    steps in history (QN), initial steepest desc. (CG)
   ISIF   =      3    stress and relaxation
   IWAVPR =     11    prediction:  0-non 1-charg 2-wave 3-comb
   ISYM   =      2    0-nonsym 1-usesym 2-fastsym
   LCORR  =      T    Harris-Foulkes like correction to forces

   POTIM  = 0.5000    time-step for ionic-motion
   TEIN   =    0.0    initial temperature
   TEBEG  =    0.0;   TEEND  =   0.0 temperature during run
   SMASS  =  -3.00    Nose mass-parameter (am)
   estimated Nose-frequenzy (Omega)   =  0.10E-29 period in steps =****** mass=  -0.376E-27a.u.
   SCALEE = 1.0000    scale energy and forces
   NPACO  =    256;   APACO  = 16.0  distance and # of slots for P.C.
   PSTRESS=    0.0 pullay stress

  Mass of Ions in am
   POMASS = 118.71195.08
  Ionic Valenz
   ZVAL   =   4.00 16.00
  Atomic Wigner-Seitz radii
   RWIGS  =  -1.00 -1.00
  virtual crystal weights 
   VCA    =   1.00  1.00
   NELECT =      52.0000    total number of electrons
   NUPDOWN=      -1.0000    fix difference up-down

 DOS related values:
   EMIN   =  10.00;   EMAX   =-10.00  energy-range for DOS
   EFERMI =   0.00
   ISMEAR =     1;   SIGMA  =   0.20  broadening in eV -4-tet -1-fermi 0-gaus

 Electronic relaxation 2 (details)
   IALGO  =     38    algorithm
   LDIAG  =      T    sub-space diagonalisation (order eigenvalues)
   LSUBROT=      F    optimize rotation matrix (better conditioning)
   TURBO    =      0    0=normal 1=particle mesh
   IRESTART =      0    0=no restart 2=restart with 2 vectors
   NREBOOT  =      0    no. of reboots
   NMIN     =      0    reboot dimension
   EREF     =   0.00    reference energy to select bands
   IMIX   =      4    mixing-type and parameters
     AMIX     =   0.40;   BMIX     =  1.00
     AMIX_MAG =   1.60;   BMIX_MAG =  1.00
     AMIN     =   0.10
     WC   =   100.;   INIMIX=   1;  MIXPRE=   1;  MAXMIX= -45

 Intra band minimization:
   WEIMIN = 0.0010     energy-eigenvalue tresh-hold
   EBREAK =  0.78E-08  absolut break condition
   DEPER  =   0.30     relativ break condition  

   TIME   =   0.40     timestep for ELM

  volume/ion in A,a.u.               =      16.69       112.63
  Fermi-wavevector in a.u.,A,eV,Ry     =   1.506265  2.846428 30.869366  2.268834
  Thomas-Fermi vector in A             =   2.617005
 
 Write flags
   LWAVE        =      F    write WAVECAR
   LDOWNSAMPLE  =      F    k-point downsampling of WAVECAR
   LCHARG       =      T    write CHGCAR
   LVTOT        =      F    write LOCPOT, total local potential
   LVHAR        =      F    write LOCPOT, Hartree potential only
   LELF         =      F    write electronic localiz. function (ELF)
   LORBIT       =      0    0 simple, 1 ext, 2 COOP (PROOUT), +10 PAW based schemes


 Dipole corrections
   LMONO  =      F    monopole corrections only (constant potential shift)
   LDIPOL =      F    correct potential (dipole corrections)
   IDIPOL =      0    1-x, 2-y, 3-z, 4-all directions 
   EPSILON=  1.0000000 bulk dielectric constant

 Exchange correlation treatment:
   GGA     =    --    GGA type
   LEXCH   =     8    internal setting for exchange type
   VOSKOWN=      0    Vosko Wilk Nusair interpolation
   LHFCALC =     F    Hartree Fock is set to
   LHFONE  =     F    Hartree Fock one center treatment
   AEXX    =    0.0000 exact exchange contribution

 Linear response parameters
   LEPSILON=     F    determine dielectric tensor
   LRPA    =     F    only Hartree local field effects (RPA)
   LNABLA  =     F    use nabla operator in PAW spheres
   LVEL    =     F    velocity operator in full k-point grid
   LINTERFAST=   F  fast interpolation
   KINTER  =     0    interpolate to denser k-point grid
   CSHIFT  =0.1000    complex shift for real part using Kramers Kronig
   OMEGAMAX=  -1.0    maximum frequency
   DEG_THRESHOLD= 0.2000000E-02 threshold for treating states as degnerate
   RTIME   =   -0.100 relaxation time in fs
  (WPLASMAI=    0.000 imaginary part of plasma frequency in eV, 0.658/RTIME)
   DFIELD  = 0.0000000 0.0000000 0.0000000 field for delta impulse in time
 
 Orbital magnetization related:
   ORBITALMAG=     F  switch on orbital magnetization
   LCHIMAG   =     F  perturbation theory with respect to B field
   DQ        =  0.001000  dq finite difference perturbation B field
   LLRAUG    =     F  two centre corrections for induced B field



--------------------------------------------------------------------------------------------------------


 quasi-Newton-method for relaxation of ions
 charge density and potential will be updated during run
 non-spin polarized calculation
 Variant of blocked Davidson
 Davidson routine will perform the subspace rotation
 perform sub-space diagonalisation
    after iterative eigenvector-optimisation
 modified Broyden-mixing scheme, WC =      100.0
 initial mixing is a Kerker type mixing with AMIX =  0.4000 and BMIX =      1.0000
 Hartree-type preconditioning will be used
 using additional bands            6
 reciprocal scheme for non local part
 use partial core corrections
 calculate Harris-corrections to forces 
   (improved forces if not selfconsistent)
 use gradient corrections 
 use of overlap-Matrix (Vanderbilt PP)
 Methfessel and Paxton  Order N= 1 SIGMA  =   0.20


--------------------------------------------------------------------------------------------------------


  energy-cutoff  :      520.00
  volume of cell :       66.76
      direct lattice vectors                 reciprocal lattice vectors
     4.056715470  0.000000000  0.000000000     0.246504841  0.000000000  0.000000000
     0.000000000  4.056715470  0.000000000     0.000000000  0.246504841  0.000000000
     0.000000000  0.000000000  4.056715470     0.000000000  0.000000000  0.246504841

  length of vectors
     4.056715470  4.056715470  4.056715470     0.246504841  0.246504841  0.246504841


 
 k-points in units of 2pi/SCALE and weight: Automatic mesh                          
   0.00000000  0.00000000  0.00000000       0.003
   0.03521498  0.00000000  0.00000000       0.017
   0.07042995  0.00000000  0.00000000       0.017
   0.10564493  0.00000000  0.00000000       0.017
   0.03521498  0.03521498  0.00000000       0.035
   0.07042995  0.03521498  0.00000000       0.070
   0.10564493  0.03521498  0.00000000       0.070
   0.07042995  0.07042995  0.00000000       0.035
   0.10564493  0.07042995  0.00000000       0.070
   0.10564493  0.10564493  0.00000000       0.035
   0.03521498  0.03521498  0.03521498       0.023
   0.07042995  0.03521498  0.03521498       0.070
   0.10564493  0.03521498  0.03521498       0.070
   0.07042995  0.07042995  0.03521498       0.070
   0.10564493  0.07042995  0.03521498       0.140
   0.10564493  0.10564493  0.03521498       0.070
   0.07042995  0.07042995  0.07042995       0.023
   0.10564493  0.07042995  0.07042995       0.070
   0.10564493  0.10564493  0.07042995       0.070
   0.10564493  0.10564493  0.10564493       0.023
 
 k-points in reciprocal lattice and weights: Automatic mesh                          
   0.00000000  0.00000000  0.00000000       0.003
   0.14285714  0.00000000  0.00000000       0.017
   0.28571429  0.00000000  0.00000000       0.017
   0.42857143  0.00000000  0.00000000       0.017
   0.14285714  0.14285714  0.00000000       0.035
   0.28571429  0.14285714  0.00000000       0.070
   0.42857143  0.14285714  0.00000000       0.070
   0.28571429  0.28571429  0.00000000       0.035
   0.42857143  0.28571429  0.00000000       0.070
   0.42857143  0.42857143  0.00000000       0.035
   0.14285714  0.14285714  0.14285714       0.023
   0.28571429  0.14285714  0.14285714       0.070
   0.42857143  0.14285714  0.14285714       0.070
   0.28571429  0.28571429  0.14285714       0.070
   0.42857143  0.28571429  0.14285714       0.140
   0.42857143  0.42857143  0.14285714       0.070
   0.28571429  0.28571429  0.28571429       0.023
   0.42857143  0.28571429  0.28571429       0.070
   0.42857143  0.42857143  0.28571429       0.070
   0.42857143  0.42857143  0.42857143       0.023
 
 position of ions in fractional coordinates (direct lattice) 
   0.50000000  0.00000000  0.50000000
   0.00000000  0.50000000  0.50000000
   0.00000000  0.00000000  0.00000000
   0.50000000  0.50000000  0.00000000
 
 position of ions in cartesian coordinates  (Angst):
   2.02835774  0.00000000  2.02835774
   0.00000000  2.02835774  2.02835774
   0.00000000  0.00000000  0.00000000
   2.02835774  2.02835774  0.00000000
 


--------------------------------------------------------------------------------------------------------


 k-point  1 :   0.0000 0.0000 0.0000  plane waves:    1791
 k-point  2 :   0.1429 0.0000 0.0000  plane waves:    1803
 k-point  3 :   0.2857 0.0000 0.0000  plane waves:    1791
 k-point  4 :   0.4286 0.0000 0.0000  plane waves:    1807
 k-point  5 :   0.1429 0.1429 0.0000  plane waves:    1813
 k-point  6 :   0.2857 0.1429 0.0000  plane waves:    1805
 k-point  7 :   0.4286 0.1429 0.0000  plane waves:    1791
 k-point  8 :   0.2857 0.2857 0.0000  plane waves:    1799
 k-point  9 :   0.4286 0.2857 0.0000  plane waves:    1805
 k-point 10 :   0.4286 0.4286 0.0000  plane waves:    1774
 k-point 11 :   0.1429 0.1429 0.1429  plane waves:    1806
 k-point 12 :   0.2857 0.1429 0.1429  plane waves:    1806
 k-point 13 :   0.4286 0.1429 0.1429  plane waves:    1790
 k-point 14 :   0.2857 0.2857 0.1429  plane waves:    1810
 k-point 15 :   0.4286 0.2857 0.1429  plane waves:    1804
 k-point 16 :   0.4286 0.4286 0.1429  plane waves:    1785
 k-point 17 :   0.2857 0.2857 0.2857  plane waves:    1797
 k-point 18 :   0.4286 0.2857 0.2857  plane waves:    1785
 k-point 19 :   0.4286 0.4286 0.2857  plane waves:    1782
 k-point 20 :   0.4286 0.4286 0.4286  plane waves:    1796

 maximum and minimum number of plane-waves per node :      1813     1774

 maximum number of plane-waves:      1813
 maximum index in each direction: 
   IXMAX=    7   IYMAX=    7   IZMAX=    7
   IXMIN=   -7   IYMIN=   -7   IZMIN=   -7


 serial   3D FFT for wavefunctions
 parallel 3D FFT for charge:
    minimum data exchange during FFTs selected (reduces bandwidth)


 total amount of memory used by VASP MPI-rank0    43581. kBytes
=======================================================================

   base      :      30000. kBytes
   nonl-proj :      10622. kBytes
   fftplans  :        574. kBytes
   grid      :       1105. kBytes
   one-center:         62. kBytes
   wavefun   :       1218. kBytes
 
     INWAV:  cpu time    0.0000: real time    0.0000
 Broyden mixing: mesh for mixing (old mesh)
   NGX = 15   NGY = 15   NGZ = 15
  (NGX  = 48   NGY  = 48   NGZ  = 48)
  gives a total of   3375 points

 initial charge density was supplied:
 charge density of overlapping atoms calculated
 number of electron      52.0000000 magnetization 
 keeping initial charge density in first step


--------------------------------------------------------------------------------------------------------


 Maximum index for augmentation-charges         1346 (set IRDMAX)


--------------------------------------------------------------------------------------------------------


 First call to EWALD:  gamma=   0.437
 Maximum number of real-space cells 3x 3x 3
 Maximum number of reciprocal cells 3x 3x 3

    FEWALD:  cpu time    0.0010: real time    0.0020


--------------------------------------- Iteration      1(   1)  ---------------------------------------


    POTLOK:  cpu time    0.0056: real time    0.0095
    SETDIJ:  cpu time    0.0022: real time    0.0024
     EDDAV:  cpu time    0.1618: real time    0.1826
       DOS:  cpu time    0.0004: real time    0.0011
    --------------------------------------------
      LOOP:  cpu time    0.1700: real time    0.1961

 eigenvalue-minimisations  :  1440
 total energy-change (2. order) : 0.4471211E+03  (-0.3553632E+04)
 number of electron      52.0000000 magnetization 
 augmentation part       52.0000000 magnetization 

 Free energy of the ion-electron system (eV)
  ---------------------------------------------------
  alpha Z        PSCENC =       374.76230354
  Ewald energy   TEWEN  =     -5932.97684768
  -Hartree energ DENC   =     -1663.66785934
  -exchange      EXHF   =         0.00000000
  -V(xc)+E(xc)   XCENC  =        73.57748989
  PAW double counting   =      6386.67317835    -6158.06938359
  entropy T*S    EENTRO =        -0.00754347
  eigenvalues    EBANDS =       -11.96744753
  atomic energy  EATOM  =      7378.79718843
  Solvation  Ediel_sol  =         0.00000000
  ---------------------------------------------------
  free energy    TOTEN  =       447.12107860 eV

  energy without entropy =      447.12862208  energy(sigma->0) =      447.12359309


--------------------------------------------------------------------------------------------------------




--------------------------------------- Iteration      1(   2)  ---------------------------------------


     EDDAV:  cpu time    0.1850: real time    0.1993
       DOS:  cpu time    0.0003: real time    0.0011
    --------------------------------------------
      LOOP:  cpu time    0.1853: real time    0.2003

 eigenvalue-minimisations  :  1696
 total energy-change (2. order) :-0.4638134E+03  (-0.4610066E+03)
 number of electron      52.0000000 magnetization 
 augmentation part       52.0000000 magnetization 

 Free energy of the ion-electron system (eV)
  ---------------------------------------------------
  alpha Z        PSCENC =       374.76230354
  Ewald energy   TEWEN  =     -5932.97684768
  -Hartree energ DENC   =     -1663.66785934
  -exchange      EXHF   =         0.00000000
  -V(xc)+E(xc)   XCENC  =        73.57748989
  PAW double counting   =      6386.67317835    -6158.06938359
  entropy T*S    EENTRO =         0.00474216
  eigenvalues    EBANDS =      -475.79309173
  atomic energy  EATOM  =      7378.79718843
  Solvation  Ediel_sol  =         0.00000000
  ---------------------------------------------------
  free energy    TOTEN  =       -16.69227996 eV

  energy without entropy =      -16.69702212  energy(sigma->0) =      -16.69386068


--------------------------------------------------------------------------------------------------------




--------------------------------------- Iteration      1(   3)  ---------------------------------------


     EDDAV:  cpu time    0.1663: real time    0.1778
       DOS:  cpu time    0.0003: real time    0.0010
    --------------------------------------------
      LOOP:  cpu time    0.1666: real time    0.1788

 eigenvalue-minimisations  :  1536
 total energy-change (2. order) :-0.7755523E+01  (-0.7603239E+01)
 number of electron      52.0000000 magnetization 
 augmentation part       52.0000000 magnetization 

 Free energy of the ion-electron system (eV)
  ---------------------------------------------------
  alpha Z        PSCENC =       374.76230354
  Ewald energy   TEWEN  =     -5932.97684768
  -Hartree energ DENC   =     -1663.66785934
  -exchange      EXHF   =         0.00000000
  -V(xc)+E(xc)   XCENC  =        73.57748989
  PAW double counting   =      6386.67317835    -6158.06938359
  entropy T*S    EENTRO =         0.00688317
  eigenvalues    EBANDS =      -483.55075578
  atomic energy  EATOM  =      7378.79718843
  Solvation  Ediel_sol  =         0.00000000
  ---------------------------------------------------
  free energy    TOTEN  =       -24.44780300 eV

  energy without entropy =      -24.45468617  energy(sigma->0) =      -24.45009739


--------------------------------------------------------------------------------------------------------




--------------------------------------- Iteration      1(   4)  ---------------------------------------


     EDDAV:  cpu time    0.1744: real time    0.1864
       DOS:  cpu time    0.0003: real time    0.0010
    --------------------------------------------
      LOOP:  cpu time    0.1748: real time    0.1875

 eigenvalue-minimisations  :  1600
 total energy-change (2. order) :-0.6836776E-01  (-0.6813158E-01)
 number of electron      52.0000000 magnetization 
 augmentation part       52.0000000 magnetization 

 Free energy of the ion-electron system (eV)
  ---------------------------------------------------
  alpha Z        PSCENC =       374.76230354
  Ewald energy   TEWEN  =     -5932.97684768
  -Hartree energ DENC   =     -1663.66785934
  -exchange      EXHF   =         0.00000000
  -V(xc)+E(xc)   XCENC  =        73.57748989
  PAW double counting   =      6386.67317835    -6158.06938359
  entropy T*S    EENTRO =         0.00838423
  eigenvalues    EBANDS =      -483.62062460
  atomic energy  EATOM  =      7378.79718843
  Solvation  Ediel_sol  =         0.00000000
  ---------------------------------------------------
  free energy    TOTEN  =       -24.51617076 eV

  energy without entropy =      -24.52455499  energy(sigma->0) =      -24.51896550


--------------------------------------------------------------------------------------------------------




--------------------------------------- Iteration      1(   5)  ---------------------------------------


     EDDAV:  cpu time    0.1753: real time    0.1889
       DOS:  cpu time    0.0003: real time    0.0011
    CHARGE:  cpu time    0.0122: real time    0.0126
    MIXING:  cpu time    0.0003: real time    0.0006
    --------------------------------------------
      LOOP:  cpu time    0.1881: real time    0.2032

 eigenvalue-minimisations  :  1600
 total energy-change (2. order) :-0.7497766E-03  (-0.7497388E-03)
 number of electron      51.9999843 magnetization 
 augmentation part       11.0374540 magnetization 

 Broyden mixing:
  rms(total) = 0.22367E+01    rms(broyden)= 0.22366E+01
  rms(prec ) = 0.25797E+01
  weight for this iteration     100.00

 Free energy of the ion-electron system (eV)
  ---------------------------------------------------
  alpha Z        PSCENC =       374.76230354
  Ewald energy   TEWEN  =     -5932.97684768
  -Hartree energ DENC   =     -1663.66785934
  -exchange      EXHF   =         0.00000000
  -V(xc)+E(xc)   XCENC  =        73.57748989
  PAW double counting   =      6386.67317835    -6158.06938359
  entropy T*S    EENTRO =         0.00838933
  eigenvalues    EBANDS =      -483.62137948
  atomic energy  EATOM  =      7378.79718843
  Solvation  Ediel_sol  =         0.00000000
  ---------------------------------------------------
  free energy    TOTEN  =       -24.51692053 eV

  energy without entropy =      -24.52530987  energy(sigma->0) =      -24.51971698


--------------------------------------------------------------------------------------------------------




--------------------------------------- Iteration      1(   6)  ---------------------------------------


    POTLOK:  cpu time    0.0048: real time    0.0142
    SETDIJ:  cpu time    0.0017: real time    0.0019
     EDDAV:  cpu time    0.1532: real time    0.1560
       DOS:  cpu time    0.0003: real time    0.0009
    CHARGE:  cpu time    0.0068: real time    0.0071
    MIXING:  cpu time    0.0003: real time    0.0005
    --------------------------------------------
      LOOP:  cpu time    0.1671: real time    0.1807

 eigenvalue-minimisations  :  1440
 total energy-change (2. order) : 0.7955285E+00  (-0.3421770E+00)
 number of electron      51.9999839 magnetization 
 augmentation part       11.4547757 magnetization 

 Broyden mixing:
  rms(total) = 0.64621E+00    rms(broyden)= 0.64620E+00
  rms(prec ) = 0.74692E+00
  weight for this iteration     100.00

 eigenvalues of (default mixing * dielectric matrix)
  average eigenvalue GAMMA=   1.3640
  1.3640

 Free energy of the ion-electron system (eV)
  ---------------------------------------------------
  alpha Z        PSCENC =       374.76230354
  Ewald energy   TEWEN  =     -5932.97684768
  -Hartree energ DENC   =     -1618.87615212
  -exchange      EXHF   =         0.00000000
  -V(xc)+E(xc)   XCENC  =        71.93034954
  PAW double counting   =      6899.29786189    -6676.06220248
  entropy T*S    EENTRO =         0.00857898
  eigenvalues    EBANDS =      -520.60247217
  atomic energy  EATOM  =      7378.79718843
  Solvation  Ediel_sol  =         0.00000000
  ---------------------------------------------------
  free energy    TOTEN  =       -23.72139207 eV

  energy without entropy =      -23.72997105  energy(sigma->0) =      -23.72425173


--------------------------------------------------------------------------------------------------------




--------------------------------------- Iteration      1(   7)  ---------------------------------------


    POTLOK:  cpu time    0.0052: real time    0.0196
    SETDIJ:  cpu time    0.0018: real time    0.0020
     EDDAV:  cpu time    0.1573: real time    0.1606
       DOS:  cpu time    0.0003: real time    0.0010
    CHARGE:  cpu time    0.0068: real time    0.0070
    MIXING:  cpu time    0.0003: real time    0.0005
    --------------------------------------------
      LOOP:  cpu time    0.1715: real time    0.1907

 eigenvalue-minimisations  :  1472
 total energy-change (2. order) : 0.8065123E-01  (-0.1084901E-01)
 number of electron      51.9999839 magnetization 
 augmentation part       11.4251129 magnetization 

 Broyden mixing:
  rms(total) = 0.30841E+00    rms(broyden)= 0.30841E+00
  rms(prec ) = 0.35001E+00
  weight for this iteration     100.00

 eigenvalues of (default mixing * dielectric matrix)
  average eigenvalue GAMMA=   1.6770
  0.9953  2.3588

 Free energy of the ion-electron system (eV)
  ---------------------------------------------------
  alpha Z        PSCENC =       374.76230354
  Ewald energy   TEWEN  =     -5932.97684768
  -Hartree energ DENC   =     -1619.24317567
  -exchange      EXHF   =         0.00000000
  -V(xc)+E(xc)   XCENC  =        71.93920495
  PAW double counting   =      7136.27078131    -6913.64437149
  entropy T*S    EENTRO =         0.00892017
  eigenvalues    EBANDS =      -519.55474441
  atomic energy  EATOM  =      7378.79718843
  Solvation  Ediel_sol  =         0.00000000
  ---------------------------------------------------
  free energy    TOTEN  =       -23.64074085 eV

  energy without entropy =      -23.64966101  energy(sigma->0) =      -23.64371423


--------------------------------------------------------------------------------------------------------




--------------------------------------- Iteration      1(   8)  ---------------------------------------


    POTLOK:  cpu time    0.0048: real time    0.0180
    SETDIJ:  cpu time    0.0018: real time    0.0020
     EDDAV:  cpu time    0.1823: real time    0.1855
       DOS:  cpu time    0.0003: real time    0.0010
    CHARGE:  cpu time    0.0068: real time    0.0071
    MIXING:  cpu time    0.0003: real time    0.0005
    --------------------------------------------
      LOOP:  cpu time    0.1961: real time    0.2142

 eigenvalue-minimisations  :  1632
 total energy-change (2. order) : 0.2040342E-01  (-0.3991002E-02)
 number of electron      51.9999839 magnetization 
 augmentation part       11.4235589 magnetization 

 Broyden mixing:
  rms(total) = 0.23694E-01    rms(broyden)= 0.23691E-01
  rms(prec ) = 0.37459E-01
  weight for this iteration     100.00

 eigenvalues of (default mixing * dielectric matrix)
  average eigenvalue GAMMA=   1.5404
  2.3520  0.9362  1.3329

 Free energy of the ion-electron system (eV)
  ---------------------------------------------------
  alpha Z        PSCENC =       374.76230354
  Ewald energy   TEWEN  =     -5932.97684768
  -Hartree energ DENC   =     -1617.48479102
  -exchange      EXHF   =         0.00000000
  -V(xc)+E(xc)   XCENC  =        71.89499617
  PAW double counting   =      7333.95123036    -7111.85109214
  entropy T*S    EENTRO =         0.00897076
  eigenvalues    EBANDS =      -520.72229586
  atomic energy  EATOM  =      7378.79718843
  Solvation  Ediel_sol  =         0.00000000
  ---------------------------------------------------
  free energy    TOTEN  =       -23.62033743 eV

  energy without entropy =      -23.62930819  energy(sigma->0) =      -23.62332768


--------------------------------------------------------------------------------------------------------




--------------------------------------- Iteration      1(   9)  ---------------------------------------


    POTLOK:  cpu time    0.0049: real time    0.0152
    SETDIJ:  cpu time    0.0019: real time    0.0021
     EDDAV:  cpu time    0.1524: real time    0.1553
       DOS:  cpu time    0.0003: real time    0.0010
    CHARGE:  cpu time    0.0068: real time    0.0071
    MIXING:  cpu time    0.0003: real time    0.0005
    --------------------------------------------
      LOOP:  cpu time    0.1665: real time    0.1811

 eigenvalue-minimisations  :  1440
 total energy-change (2. order) : 0.5147413E-03  (-0.2159551E-03)
 number of electron      51.9999839 magnetization 
 augmentation part       11.4238688 magnetization 

 Broyden mixing:
  rms(total) = 0.59727E-02    rms(broyden)= 0.59714E-02
  rms(prec ) = 0.88315E-02
  weight for this iteration     100.00

 eigenvalues of (default mixing * dielectric matrix)
  average eigenvalue GAMMA=   1.6031
  2.4692  0.9680  1.1890  1.7863

 Free energy of the ion-electron system (eV)
  ---------------------------------------------------
  alpha Z        PSCENC =       374.76230354
  Ewald energy   TEWEN  =     -5932.97684768
  -Hartree energ DENC   =     -1617.60907139
  -exchange      EXHF   =         0.00000000
  -V(xc)+E(xc)   XCENC  =        71.91195225
  PAW double counting   =      7338.18764974    -7115.94204945
  entropy T*S    EENTRO =         0.00892732
  eigenvalues    EBANDS =      -520.75987543
  atomic energy  EATOM  =      7378.79718843
  Solvation  Ediel_sol  =         0.00000000
  ---------------------------------------------------
  free energy    TOTEN  =       -23.61982269 eV

  energy without entropy =      -23.62875001  energy(sigma->0) =      -23.62279846


--------------------------------------------------------------------------------------------------------




--------------------------------------- Iteration      1(  10)  ---------------------------------------


    POTLOK:  cpu time    0.0059: real time    0.0247
    SETDIJ:  cpu time    0.0017: real time    0.0020
     EDDAV:  cpu time    0.1637: real time    0.1673
       DOS:  cpu time    0.0003: real time    0.0011
    CHARGE:  cpu time    0.0071: real time    0.0074
    MIXING:  cpu time    0.0003: real time    0.0005
    --------------------------------------------
      LOOP:  cpu time    0.1791: real time    0.2030

 eigenvalue-minimisations  :  1536
 total energy-change (2. order) :-0.2284708E-04  (-0.1078622E-04)
 number of electron      51.9999839 magnetization 
 augmentation part       11.4223547 magnetization 

 Broyden mixing:
  rms(total) = 0.23468E-02    rms(broyden)= 0.23465E-02
  rms(prec ) = 0.28629E-02
  weight for this iteration     100.00

 eigenvalues of (default mixing * dielectric matrix)
  average eigenvalue GAMMA=   1.6743
  0.9938  0.9938  2.4042  2.4042  1.5755

 Free energy of the ion-electron system (eV)
  ---------------------------------------------------
  alpha Z        PSCENC =       374.76230354
  Ewald energy   TEWEN  =     -5932.97684768
  -Hartree energ DENC   =     -1617.79292886
  -exchange      EXHF   =         0.00000000
  -V(xc)+E(xc)   XCENC  =        71.92017144
  PAW double counting   =      7340.48324445    -7118.18198191
  entropy T*S    EENTRO =         0.00893364
  eigenvalues    EBANDS =      -520.63992858
  atomic energy  EATOM  =      7378.79718843
  Solvation  Ediel_sol  =         0.00000000
  ---------------------------------------------------
  free energy    TOTEN  =       -23.61984554 eV

  energy without entropy =      -23.62877917  energy(sigma->0) =      -23.62282341


--------------------------------------------------------------------------------------------------------




--------------------------------------- Iteration      1(  11)  ---------------------------------------


    POTLOK:  cpu time    0.0051: real time    0.0160
    SETDIJ:  cpu time    0.0016: real time    0.0019
     EDDAV:  cpu time    0.1633: real time    0.1662
       DOS:  cpu time    0.0003: real time    0.0010
    CHARGE:  cpu time    0.0069: real time    0.0072
    MIXING:  cpu time    0.0003: real time    0.0005
    --------------------------------------------
      LOOP:  cpu time    0.1775: real time    0.1928

 eigenvalue-minimisations  :  1552
 total energy-change (2. order) :-0.5538128E-05  (-0.8182296E-06)
 number of electron      51.9999839 magnetization 
 augmentation part       11.4225416 magnetization 

 Broyden mixing:
  rms(total) = 0.45333E-03    rms(broyden)= 0.45327E-03
  rms(prec ) = 0.63166E-03
  weight for this iteration     100.00

 eigenvalues of (default mixing * dielectric matrix)
  average eigenvalue GAMMA=   1.6497
  2.6018  2.2833  1.7875  1.0047  1.0047  1.2164

 Free energy of the ion-electron system (eV)
  ---------------------------------------------------
  alpha Z        PSCENC =       374.76230354
  Ewald energy   TEWEN  =     -5932.97684768
  -Hartree energ DENC   =     -1617.80584060
  -exchange      EXHF   =         0.00000000
  -V(xc)+E(xc)   XCENC  =        71.92060036
  PAW double counting   =      7339.00954001    -7116.67954805
  entropy T*S    EENTRO =         0.00893397
  eigenvalues    EBANDS =      -520.65618106
  atomic energy  EATOM  =      7378.79718843
  Solvation  Ediel_sol  =         0.00000000
  ---------------------------------------------------
  free energy    TOTEN  =       -23.61985107 eV

  energy without entropy =      -23.62878505  energy(sigma->0) =      -23.62282906


--------------------------------------------------------------------------------------------------------




--------------------------------------- Iteration      1(  12)  ---------------------------------------


    POTLOK:  cpu time    0.0040: real time    0.0143
    SETDIJ:  cpu time    0.0015: real time    0.0017
     EDDAV:  cpu time    0.1190: real time    0.1214
       DOS:  cpu time    0.0003: real time    0.0010
    --------------------------------------------
      LOOP:  cpu time    0.1247: real time    0.1384

 eigenvalue-minimisations  :   960
 total energy-change (2. order) :-0.5147922E-07  (-0.4758006E-07)
 number of electron      51.9999839 magnetization 
 augmentation part       11.4225416 magnetization 

 Free energy of the ion-electron system (eV)
  ---------------------------------------------------
  alpha Z        PSCENC =       374.76230354
  Ewald energy   TEWEN  =     -5932.97684768
  -Hartree energ DENC   =     -1617.80202048
  -exchange      EXHF   =         0.00000000
  -V(xc)+E(xc)   XCENC  =        71.92033765
  PAW double counting   =      7339.31584760    -7116.98433652
  entropy T*S    EENTRO =         0.00893413
  eigenvalues    EBANDS =      -520.66125779
  atomic energy  EATOM  =      7378.79718843
  Solvation  Ediel_sol  =         0.00000000
  ---------------------------------------------------
  free energy    TOTEN  =       -23.61985113 eV

  energy without entropy =      -23.62878526  energy(sigma->0) =      -23.62282917


--------------------------------------------------------------------------------------------------------




 average (electrostatic) potential at core
  the test charge radii are     1.4072  0.9952
  (the norm of the test charge is              1.0000)
       1 -39.0999       2 -89.9503       3 -89.9503       4 -89.9503
 
 
 
 E-fermi :  10.6731     XC(G=0): -13.1548     alpha+bet :-16.1078


 k-point     1 :       0.0000    0.0000    0.0000
  band No.  band energies     occupation 
      1     -42.0167      2.00000
      2     -42.0167      2.00000
      3     -42.0167      2.00000
      4     -41.9048      2.00000
      5     -41.9048      2.00000
      6     -41.9048      2.00000
      7     -41.7849      2.00000
      8     -41.7849      2.00000
      9     -41.7849      2.00000
     10      -0.9170      2.00000
     11       3.9308      2.00000
     12       5.2167      2.00000
     13       5.2167      2.00000
     14       5.3343      2.00000
     15       5.3343      2.00000
     16       5.3343      2.00000
     17       8.1868      2.00000
     18       8.1868      2.00000
     19       8.1868      2.00000
     20       9.4924      2.00000
     21       9.4924      2.00000
     22       9.5596      2.00000
     23       9.5596      2.00000
     24       9.5596      2.00000
     25      10.2743      2.01632
     26      10.7861      0.19234
     27      10.7861      0.19234
     28      10.7861      0.19234
     29      13.3294     -0.00000
     30      16.6216      0.00000
     31      16.6216      0.00000
     32      18.3595      0.00000

 k-point     2 :       0.1429    0.0000    0.0000
  band No.  band energies     occupation 
      1     -42.0106      2.00000
      2     -42.0106      2.00000
      3     -42.0070      2.00000
      4     -41.9064      2.00000
      5     -41.9064      2.00000
      6     -41.9051      2.00000
      7     -41.7957      2.00000
      8     -41.7894      2.00000
      9     -41.7894      2.00000
     10      -0.6960      2.00000
     11       4.0598      2.00000
     12       5.0367      2.00000
     13       5.3896      2.00000
     14       5.3954      2.00000
     15       5.3954      2.00000
     16       5.4091      2.00000
     17       7.7870      2.00000
     18       7.7870      2.00000
     19       8.0874      2.00000
     20       8.5953      2.00000
     21       9.4539      2.00000
     22       9.4794      2.00000
     23       9.5438      2.00000
     24       9.5438      2.00000
     25      10.0729      2.00019
     26      10.7866      0.18983
     27      11.2377     -0.00048
     28      11.2377     -0.00048
     29      13.6920     -0.00000
     30      16.5536      0.00000
     31      16.5799      0.00000
     32      18.4313      0.00000

 k-point     3 :       0.2857    0.0000    0.0000
  band No.  band energies     occupation 
      1     -41.9945      2.00000
      2     -41.9945      2.00000
      3     -41.9801      2.00000
      4     -41.9116      2.00000
      5     -41.9116      2.00000
      6     -41.9055      2.00000
      7     -41.8250      2.00000
      8     -41.7998      2.00000
      9     -41.7998      2.00000
     10      -0.0615      2.00000
     11       3.9323      2.00000
     12       4.7877      2.00000
     13       5.5251      2.00000
     14       5.5251      2.00000
     15       5.5289      2.00000
     16       5.9434      2.00000
     17       7.3390      2.00000
     18       7.3390      2.00000
     19       7.6795      2.00000
     20       7.8514      2.00000
     21       8.9302      2.00000
     22       9.0124      2.00000
     23       9.0124      2.00000
     24       9.2733      2.00000
     25       9.6755      2.00000
     26      10.7880      0.18324
     27      12.5436     -0.00000
     28      12.5436     -0.00000
     29      13.0848     -0.00000
     30      16.4811      0.00000
     31      17.7179      0.00000
     32      17.7179      0.00000

 k-point     4 :       0.4286    0.0000    0.0000
  band No.  band energies     occupation 
      1     -41.9777      2.00000
      2     -41.9777      2.00000
      3     -41.9472      2.00000
      4     -41.9194      2.00000
      5     -41.9194      2.00000
      6     -41.9059      2.00000
      7     -41.8600      2.00000
      8     -41.8087      2.00000
      9     -41.8087      2.00000
     10       0.8165      2.00000
     11       2.8622      2.00000
     12       5.1585      2.00000
     13       5.6018      2.00000
     14       5.6018      2.00000
     15       5.6618      2.00000
     16       6.6048      2.00000
     17       7.2550      2.00000
     18       7.2550      2.00000
     19       7.3960      2.00000
     20       7.6429      2.00000
     21       8.3477      2.00000
     22       8.4415      2.00000
     23       8.4415      2.00000
     24       8.6115      2.00000
     25       9.6008      2.00000
     26      10.7891      0.17826
     27      12.4733     -0.00000
     28      14.0739     -0.00000
     29      14.0739     -0.00000
     30      16.3380      0.00000
     31      16.3380      0.00000
     32      16.3950      0.00000

 k-point     5 :       0.1429    0.1429    0.0000
  band No.  band energies     occupation 
      1     -42.0130      2.00000
      2     -42.0043      2.00000
      3     -41.9909      2.00000
      4     -41.9159      2.00000
      5     -41.9076      2.00000
      6     -41.8967      2.00000
      7     -41.8138      2.00000
      8     -41.7943      2.00000
      9     -41.7849      2.00000
     10      -0.4806      2.00000
     11       4.1798      2.00000
     12       5.0708      2.00000
     13       5.3231      2.00000
     14       5.3585      2.00000
     15       5.4432      2.00000
     16       5.5954      2.00000
     17       7.3273      2.00000
     18       7.4970      2.00000
     19       8.2749      2.00000
     20       8.3471      2.00000
     21       9.2142      2.00000
     22       9.2504      2.00000
     23       9.4098      2.00000
     24       9.6468      2.00000
     25       9.8711      2.00000
     26      10.5347      1.91393
     27      11.1957     -0.00138
     28      11.8172     -0.00000
     29      14.2085     -0.00000
     30      16.4200      0.00000
     31      16.5610      0.00000
     32      18.0526      0.00000

 k-point     6 :       0.2857    0.1429    0.0000
  band No.  band energies     occupation 
      1     -42.0025      2.00000
      2     -41.9880      2.00000
      3     -41.9659      2.00000
      4     -41.9276      2.00000
      5     -41.9120      2.00000
      6     -41.8883      2.00000
      7     -41.8435      2.00000
      8     -41.8058      2.00000
      9     -41.7900      2.00000
     10       0.1349      2.00000
     11       4.0613      2.00000
     12       4.8642      2.00000
     13       5.3766      2.00000
     14       5.4514      2.00000
     15       5.8322      2.00000
     16       5.8363      2.00000
     17       6.9106      2.00000
     18       7.3461      2.00000
     19       7.5315      2.00000
     20       8.1872      2.00000
     21       8.5944      2.00000
     22       8.9028      2.00000
     23       9.1137      2.00000
     24       9.3975      2.00000
     25       9.5735      2.00000
     26      10.4100      2.06868
     27      11.7272     -0.00000
     28      13.0192     -0.00000
     29      13.7008     -0.00000
     30      15.8773     -0.00000
     31      17.1446      0.00000
     32      18.1905      0.00000

 k-point     7 :       0.4286    0.1429    0.0000
  band No.  band energies     occupation 
      1     -41.9818      2.00000
      2     -41.9707      2.00000
      3     -41.9593      2.00000
      4     -41.9265      2.00000
      5     -41.9191      2.00000
      6     -41.8815      2.00000
      7     -41.8719      2.00000
      8     -41.8158      2.00000
      9     -41.7987      2.00000
     10       0.9714      2.00000
     11       3.0488      2.00000
     12       5.2194      2.00000
     13       5.4593      2.00000
     14       5.5019      2.00000
     15       5.8126      2.00000
     16       6.4889      2.00000
     17       6.9431      2.00000
     18       7.0908      2.00000
     19       7.6591      2.00000
     20       7.7345      2.00000
     21       7.9757      2.00000
     22       8.5062      2.00000
     23       8.6214      2.00000
     24       9.0074      2.00000
     25       9.4721      2.00000
     26      10.3948      2.06418
     27      12.0441     -0.00000
     28      13.6947     -0.00000
     29      14.4318     -0.00000
     30      14.9178     -0.00000
     31      16.8229      0.00000
     32      17.3788      0.00000

 k-point     8 :       0.2857    0.2857    0.0000
  band No.  band energies     occupation 
      1     -42.0051      2.00000
      2     -41.9709      2.00000
      3     -41.9470      2.00000
      4     -41.9456      2.00000
      5     -41.9139      2.00000
      6     -41.8722      2.00000
      7     -41.8668      2.00000
      8     -41.8207      2.00000
      9     -41.7834      2.00000
     10       0.6867      2.00000
     11       4.2305      2.00000
     12       4.6579      2.00000
     13       5.3436      2.00000
     14       5.4923      2.00000
     15       5.8654      2.00000
     16       6.3018      2.00000
     17       6.3976      2.00000
     18       6.9077      2.00000
     19       7.6713      2.00000
     20       8.4605      2.00000
     21       8.4834      2.00000
     22       8.4902      2.00000
     23       8.9428      2.00000
     24       9.0044      2.00000
     25       9.5117      2.00000
     26       9.8687      2.00000
     27      11.4822     -0.00000
     28      12.9211     -0.00000
     29      14.0930     -0.00000
     30      15.6541     -0.00000
     31      17.2419      0.00000
     32      18.8926      0.00000

 k-point     9 :       0.4286    0.2857    0.0000
  band No.  band energies     occupation 
      1     -41.9989      2.00000
      2     -41.9648      2.00000
      3     -41.9519      2.00000
      4     -41.9274      2.00000
      5     -41.9186      2.00000
      6     -41.8966      2.00000
      7     -41.8501      2.00000
      8     -41.8348      2.00000
      9     -41.7843      2.00000
     10       1.3919      2.00000
     11       3.5382      2.00000
     12       4.7246      2.00000
     13       5.3708      2.00000
     14       5.7511      2.00000
     15       6.0606      2.00000
     16       6.2666      2.00000
     17       6.5725      2.00000
     18       6.9695      2.00000
     19       7.7520      2.00000
     20       7.8727      2.00000
     21       7.9975      2.00000
     22       8.5514      2.00000
     23       8.6120      2.00000
     24       9.0157      2.00000
     25       9.3131      2.00000
     26       9.6286      2.00000
     27      11.5918     -0.00000
     28      12.2351     -0.00000
     29      15.1605     -0.00000
     30      15.3524     -0.00000
     31      17.6596      0.00000
     32      17.9209      0.00000

 k-point    10 :       0.4286    0.4286    0.0000
  band No.  band energies     occupation 
      1     -42.0126      2.00000
      2     -41.9621      2.00000
      3     -41.9298      2.00000
      4     -41.9252      2.00000
      5     -41.9188      2.00000
      6     -41.9153      2.00000
      7     -41.8563      2.00000
      8     -41.8323      2.00000
      9     -41.7763      2.00000
     10       1.8765      2.00000
     11       3.9918      2.00000
     12       4.1375      2.00000
     13       5.2684      2.00000
     14       6.1532      2.00000
     15       6.2386      2.00000
     16       6.2403      2.00000
     17       6.3429      2.00000
     18       7.1602      2.00000
     19       7.5438      2.00000
     20       8.0402      2.00000
     21       8.0664      2.00000
     22       8.2500      2.00000
     23       8.3722      2.00000
     24       8.6817      2.00000
     25       9.0638      2.00000
     26       9.2481      2.00000
     27      11.5298     -0.00000
     28      11.6175     -0.00000
     29      15.5007     -0.00000
     30      16.5191      0.00000
     31      17.9502      0.00000
     32      18.2838      0.00000

 k-point    11 :       0.1429    0.1429    0.1429
  band No.  band energies     occupation 
      1     -42.0189      2.00000
      2     -41.9866      2.00000
      3     -41.9866      2.00000
      4     -41.9147      2.00000
      5     -41.9147      2.00000
      6     -41.8905      2.00000
      7     -41.8334      2.00000
      8     -41.7885      2.00000
      9     -41.7885      2.00000
     10      -0.2720      2.00000
     11       4.2545      2.00000
     12       5.2178      2.00000
     13       5.2448      2.00000
     14       5.2448      2.00000
     15       5.6462      2.00000
     16       5.6462      2.00000
     17       6.8352      2.00000
     18       7.7942      2.00000
     19       7.7942      2.00000
     20       8.6899      2.00000
     21       8.6899      2.00000
     22       9.2010      2.00000
     23       9.2010      2.00000
     24       9.5294      2.00000
     25       9.7619      2.00000
     26      10.5791      1.70586
     27      11.5217     -0.00000
     28      11.5217     -0.00000
     29      15.1532     -0.00000
     30      16.2767      0.00000
     31      16.2767      0.00000
     32      17.5434      0.00000

 k-point    12 :       0.2857    0.1429    0.1429
  band No.  band energies     occupation 
      1     -42.0126      2.00000
      2     -41.9752      2.00000
      3     -41.9661      2.00000
      4     -41.9267      2.00000
      5     -41.9093      2.00000
      6     -41.8815      2.00000
      7     -41.8648      2.00000
      8     -41.7971      2.00000
      9     -41.7912      2.00000
     10       0.3206      2.00000
     11       4.0917      2.00000
     12       4.9005      2.00000
     13       5.3006      2.00000
     14       5.6927      2.00000
     15       5.7884      2.00000
     16       5.8665      2.00000
     17       6.7061      2.00000
     18       7.3751      2.00000
     19       7.3939      2.00000
     20       8.2854      2.00000
     21       8.5758      2.00000
     22       8.6352      2.00000
     23       9.1324      2.00000
     24       9.2239      2.00000
     25       9.5542      2.00000
     26      10.4168      2.07000
     27      11.7670     -0.00000
     28      12.3132     -0.00000
     29      14.4692     -0.00000
     30      15.4946     -0.00000
     31      17.2145      0.00000
     32      17.8643      0.00000

 k-point    13 :       0.4286    0.1429    0.1429
  band No.  band energies     occupation 
      1     -41.9944      2.00000
      2     -41.9663      2.00000
      3     -41.9606      2.00000
      4     -41.9401      2.00000
      5     -41.8987      2.00000
      6     -41.8851      2.00000
      7     -41.8748      2.00000
      8     -41.8052      2.00000
      9     -41.8009      2.00000
     10       1.1056      2.00000
     11       3.2092      2.00000
     12       4.9271      2.00000
     13       5.4767      2.00000
     14       5.8190      2.00000
     15       5.9149      2.00000
     16       6.3839      2.00000
     17       6.9099      2.00000
     18       6.9804      2.00000
     19       7.1243      2.00000
     20       8.1431      2.00000
     21       8.1613      2.00000
     22       8.4084      2.00000
     23       8.7477      2.00000
     24       9.1011      2.00000
     25       9.2642      2.00000
     26      10.2473      2.01032
     27      12.0594     -0.00000
     28      13.1394     -0.00000
     29      14.1458     -0.00000
     30      14.5572     -0.00000
     31      16.5718      0.00000
     32      18.7719      0.00000

 k-point    14 :       0.2857    0.2857    0.1429
  band No.  band energies     occupation 
      1     -42.0153      2.00000
      2     -41.9758      2.00000
      3     -41.9606      2.00000
      4     -41.9236      2.00000
      5     -41.8990      2.00000
      6     -41.8971      2.00000
      7     -41.8653      2.00000
      8     -41.8049      2.00000
      9     -41.7851      2.00000
     10       0.8334      2.00000
     11       4.0051      2.00000
     12       4.8145      2.00000
     13       5.5350      2.00000
     14       5.6118      2.00000
     15       5.8426      2.00000
     16       6.2856      2.00000
     17       6.5201      2.00000
     18       6.9095      2.00000
     19       7.3488      2.00000
     20       8.4678      2.00000
     21       8.4727      2.00000
     22       8.5300      2.00000
     23       8.6306      2.00000
     24       8.9533      2.00000
     25       9.6143      2.00000
     26      10.2158      2.00570
     27      11.4628     -0.00000
     28      12.6551     -0.00000
     29      13.4259     -0.00000
     30      16.2618      0.00000
     31      16.4395      0.00000
     32      17.6392      0.00000

 k-point    15 :       0.4286    0.2857    0.1429
  band No.  band energies     occupation 
      1     -42.0044      2.00000
      2     -41.9869      2.00000
      3     -41.9615      2.00000
      4     -41.9291      2.00000
      5     -41.9110      2.00000
      6     -41.8839      2.00000
      7     -41.8500      2.00000
      8     -41.8158      2.00000
      9     -41.7855      2.00000
     10       1.4511      2.00000
     11       3.6133      2.00000
     12       4.5389      2.00000
     13       5.7345      2.00000
     14       5.8088      2.00000
     15       6.0423      2.00000
     16       6.4100      2.00000
     17       6.5664      2.00000
     18       6.9041      2.00000
     19       7.1331      2.00000
     20       8.1415      2.00000
     21       8.2922      2.00000
     22       8.5192      2.00000
     23       8.6558      2.00000
     24       8.8717      2.00000
     25       9.2965      2.00000
     26       9.9655      2.00001
     27      11.6120     -0.00000
     28      12.4103     -0.00000
     29      13.1772     -0.00000
     30      15.3206     -0.00000
     31      17.5719      0.00000
     32      17.8484      0.00000

 k-point    16 :       0.4286    0.4286    0.1429
  band No.  band energies     occupation 
      1     -42.0129      2.00000
      2     -41.9903      2.00000
      3     -41.9618      2.00000
      4     -41.9531      2.00000
      5     -41.8888      2.00000
      6     -41.8824      2.00000
      7     -41.8324      2.00000
      8     -41.8315      2.00000
      9     -41.7765      2.00000
     10       1.7976      2.00000
     11       3.9957      2.00000
     12       4.2725      2.00000
     13       5.5800      2.00000
     14       5.6887      2.00000
     15       6.1990      2.00000
     16       6.3472      2.00000
     17       6.9345      2.00000
     18       7.0614      2.00000
     19       7.1942      2.00000
     20       7.8130      2.00000
     21       8.3208      2.00000
     22       8.3444      2.00000
     23       8.6965      2.00000
     24       8.6977      2.00000
     25       9.2245      2.00000
     26       9.4849      2.00000
     27      11.3844     -0.00001
     28      11.5436     -0.00000
     29      13.8384     -0.00000
     30      16.1746      0.00000
     31      16.3259      0.00000
     32      18.4863      0.00000

 k-point    17 :       0.2857    0.2857    0.2857
  band No.  band energies     occupation 
      1     -42.0250      2.00000
      2     -41.9800      2.00000
      3     -41.9800      2.00000
      4     -41.9402      2.00000
      5     -41.8830      2.00000
      6     -41.8830      2.00000
      7     -41.8580      2.00000
      8     -41.7897      2.00000
      9     -41.7897      2.00000
     10       1.2059      2.00000
     11       3.7493      2.00000
     12       5.2049      2.00000
     13       5.2049      2.00000
     14       5.7964      2.00000
     15       6.2916      2.00000
     16       6.2916      2.00000
     17       6.8128      2.00000
     18       6.8884      2.00000
     19       6.8884      2.00000
     20       8.0296      2.00000
     21       8.4795      2.00000
     22       8.4795      2.00000
     23       8.7992      2.00000
     24       8.7992      2.00000
     25       9.7884      2.00000
     26      10.4490      2.06707
     27      11.4579     -0.00000
     28      11.4579     -0.00000
     29      14.0260     -0.00000
     30      14.8626     -0.00000
     31      14.8626     -0.00000
     32      19.2334      0.00000

 k-point    18 :       0.4286    0.2857    0.2857
  band No.  band energies     occupation 
      1     -42.0203      2.00000
      2     -41.9933      2.00000
      3     -41.9912      2.00000
      4     -41.9633      2.00000
      5     -41.8778      2.00000
      6     -41.8553      2.00000
      7     -41.8471      2.00000
      8     -41.7950      2.00000
      9     -41.7866      2.00000
     10       1.5612      2.00000
     11       3.7994      2.00000
     12       4.5425      2.00000
     13       5.5620      2.00000
     14       5.9767      2.00000
     15       6.3618      2.00000
     16       6.4583      2.00000
     17       6.8270      2.00000
     18       6.8372      2.00000
     19       7.1586      2.00000
     20       7.7225      2.00000
     21       8.3654      2.00000
     22       8.5547      2.00000
     23       8.8967      2.00000
     24       8.9223      2.00000
     25       9.4351      2.00000
     26      10.2487      2.01058
     27      11.5124     -0.00000
     28      11.5311     -0.00000
     29      12.6129     -0.00000
     30      14.1297     -0.00000
     31      15.8661     -0.00000
     32      17.9823      0.00000

 k-point    19 :       0.4286    0.4286    0.2857
  band No.  band energies     occupation 
      1     -42.0253      2.00000
      2     -42.0111      2.00000
      3     -41.9938      2.00000
      4     -41.9895      2.00000
      5     -41.8537      2.00000
      6     -41.8506      2.00000
      7     -41.8325      2.00000
      8     -41.7978      2.00000
      9     -41.7772      2.00000
     10       1.6197      2.00000
     11       4.1503      2.00000
     12       4.5568      2.00000
     13       5.1320      2.00000
     14       6.3094      2.00000
     15       6.4295      2.00000
     16       6.4752      2.00000
     17       6.9896      2.00000
     18       7.0086      2.00000
     19       7.3516      2.00000
     20       7.7171      2.00000
     21       8.4298      2.00000
     22       8.4813      2.00000
     23       8.8238      2.00000
     24       9.0582      2.00000
     25       9.4305      2.00000
     26      10.0587      2.00012
     27      10.9041     -0.06928
     28      11.0778     -0.01480
     29      12.4689     -0.00000
     30      14.6680     -0.00000
     31      14.7332     -0.00000
     32      16.5450      0.00000

 k-point    20 :       0.4286    0.4286    0.4286
  band No.  band energies     occupation 
      1     -42.0432      2.00000
      2     -42.0118      2.00000
      3     -42.0116      2.00000
      4     -42.0116      2.00000
      5     -41.8334      2.00000
      6     -41.8334      2.00000
      7     -41.8319      2.00000
      8     -41.7780      2.00000
      9     -41.7780      2.00000
     10       1.4831      2.00000
     11       4.4110      2.00000
     12       4.7308      2.00000
     13       4.7308      2.00000
     14       6.7721      2.00000
     15       6.8133      2.00000
     16       6.8133      2.00000
     17       7.0699      2.00000
     18       7.1464      2.00000
     19       7.1464      2.00000
     20       8.3267      2.00000
     21       8.3267      2.00000
     22       8.3392      2.00000
     23       8.8372      2.00000
     24       8.8372      2.00000
     25       9.8240      2.00000
     26      10.3722      2.05491
     27      10.4538      2.06489
     28      10.4538      2.06489
     29      11.8050     -0.00000
     30      14.1553     -0.00000
     31      14.1553     -0.00000
     32      15.0294     -0.00000


--------------------------------------------------------------------------------------------------------


 soft charge-density along one line, spin component           1
         0         1         2         3         4         5         6         7         8         9
[...]
     22       8.6231      2.00000
     23       9.1197      2.00000
     24       9.2109      2.00000
     25       9.5404      2.00000
     26      10.4020      2.07008
     27      11.7508     -0.00000
     28      12.2972     -0.00000
     29      14.4520     -0.00000
     30      15.4765     -0.00000
     31      17.1948      0.00000
     32      17.8444      0.00000

 k-point    13 :       0.4286    0.1429    0.1429
  band No.  band energies     occupation 
      1     -42.0058      2.00000
      2     -41.9778      2.00000
      3     -41.9722      2.00000
      4     -41.9517      2.00000
      5     -41.9104      2.00000
      6     -41.8969      2.00000
      7     -41.8866      2.00000
      8     -41.8172      2.00000
      9     -41.8130      2.00000
     10       1.0977      2.00000
     11       3.2018      2.00000
     12       4.9193      2.00000
     13       5.4688      2.00000
     14       5.8104      2.00000
     15       5.9064      2.00000
     16       6.3748      2.00000
     17       6.9002      2.00000
     18       6.9705      2.00000
     19       7.1143      2.00000
     20       8.1317      2.00000
     21       8.1498      2.00000
     22       8.3966      2.00000
     23       8.7355      2.00000
     24       9.0883      2.00000
     25       9.2511      2.00000
     26      10.2328      2.01047
     27      12.0419     -0.00000
     28      13.1229     -0.00000
     29      14.1295     -0.00000
     30      14.5393     -0.00000
     31      16.5527      0.00000
     32      18.7531      0.00000

 k-point    14 :       0.2857    0.2857    0.1429
  band No.  band energies     occupation 
      1     -42.0266      2.00000
      2     -41.9873      2.00000
      3     -41.9721      2.00000
      4     -41.9352      2.00000
      5     -41.9108      2.00000
      6     -41.9089      2.00000
      7     -41.8771      2.00000
      8     -41.8169      2.00000
      9     -41.7972      2.00000
     10       0.8258      2.00000
     11       3.9974      2.00000
     12       4.8064      2.00000
     13       5.5268      2.00000
     14       5.6035      2.00000
     15       5.8341      2.00000
     16       6.2766      2.00000
     17       6.5108      2.00000
     18       6.8998      2.00000
     19       7.3385      2.00000
     20       8.4559      2.00000
     21       8.4607      2.00000
     22       8.5181      2.00000
     23       8.6185      2.00000
     24       8.9407      2.00000
     25       9.6002      2.00000
     26      10.2014      2.00580
     27      11.4471     -0.00000
     28      12.6385     -0.00000
     29      13.4093     -0.00000
     30      16.2431      0.00000
     31      16.4211      0.00000
     32      17.6191      0.00000

 k-point    15 :       0.4286    0.2857    0.1429
  band No.  band energies     occupation 
      1     -42.0158      2.00000
      2     -41.9984      2.00000
      3     -41.9731      2.00000
      4     -41.9407      2.00000
      5     -41.9227      2.00000
      6     -41.8957      2.00000
      7     -41.8619      2.00000
      8     -41.8279      2.00000
      9     -41.7977      2.00000
     10       1.4428      2.00000
     11       3.6057      2.00000
     12       4.5311      2.00000
     13       5.7261      2.00000
     14       5.8001      2.00000
     15       6.0334      2.00000
     16       6.4008      2.00000
     17       6.5571      2.00000
     18       6.8943      2.00000
     19       7.1231      2.00000
     20       8.1301      2.00000
     21       8.2806      2.00000
     22       8.5073      2.00000
     23       8.6437      2.00000
     24       8.8592      2.00000
     25       9.2833      2.00000
     26       9.9515      2.00001
     27      11.5957     -0.00000
     28      12.3942     -0.00000
     29      13.1600     -0.00000
     30      15.3023     -0.00000
     31      17.5516      0.00000
     32      17.8295      0.00000

 k-point    16 :       0.4286    0.4286    0.1429
  band No.  band energies     occupation 
      1     -42.0242      2.00000
      2     -42.0017      2.00000
      3     -41.9733      2.00000
      4     -41.9646      2.00000
      5     -41.9005      2.00000
      6     -41.8942      2.00000
      7     -41.8444      2.00000
      8     -41.8435      2.00000
      9     -41.7887      2.00000
     10       1.7892      2.00000
     11       3.9881      2.00000
     12       4.2646      2.00000
     13       5.5715      2.00000
     14       5.6801      2.00000
     15       6.1903      2.00000
     16       6.3383      2.00000
     17       6.9248      2.00000
     18       7.0515      2.00000
     19       7.1841      2.00000
     20       7.8021      2.00000
     21       8.3092      2.00000
     22       8.3327      2.00000
     23       8.6843      2.00000
     24       8.6855      2.00000
     25       9.2113      2.00000
     26       9.4716      2.00000
     27      11.3686     -0.00001
     28      11.5277     -0.00000
     29      13.8204     -0.00000
     30      16.1557      0.00000
     31      16.3068      0.00000
     32      18.4663      0.00000

 k-point    17 :       0.2857    0.2857    0.2857
  band No.  band energies     occupation 
      1     -42.0363      2.00000
      2     -41.9914      2.00000
      3     -41.9914      2.00000
      4     -41.9518      2.00000
      5     -41.8948      2.00000
      6     -41.8948      2.00000
      7     -41.8699      2.00000
      8     -41.8019      2.00000
      9     -41.8019      2.00000
     10       1.1981      2.00000
     11       3.7420      2.00000
     12       5.1965      2.00000
     13       5.1965      2.00000
     14       5.7881      2.00000
     15       6.2826      2.00000
     16       6.2826      2.00000
     17       6.8032      2.00000
     18       6.8787      2.00000
     19       6.8787      2.00000
     20       8.0184      2.00000
     21       8.4675      2.00000
     22       8.4675      2.00000
     23       8.7869      2.00000
     24       8.7869      2.00000
     25       9.7739      2.00000
     26      10.4341      2.06689
     27      11.4426     -0.00000
     28      11.4426     -0.00000
     29      14.0086     -0.00000
     30      14.8443     -0.00000
     31      14.8443     -0.00000
     32      19.2126      0.00000

 k-point    18 :       0.4286    0.2857    0.2857
  band No.  band energies     occupation 
      1     -42.0316      2.00000
      2     -42.0047      2.00000
      3     -42.0026      2.00000
      4     -41.9748      2.00000
      5     -41.8896      2.00000
      6     -41.8672      2.00000
      7     -41.8590      2.00000
      8     -41.8071      2.00000
      9     -41.7987      2.00000
     10       1.5532      2.00000
     11       3.7920      2.00000
     12       4.5346      2.00000
     13       5.5534      2.00000
     14       5.9681      2.00000
     15       6.3526      2.00000
     16       6.4490      2.00000
     17       6.8174      2.00000
     18       6.8275      2.00000
     19       7.1487      2.00000
     20       7.7118      2.00000
     21       8.3536      2.00000
     22       8.5426      2.00000
     23       8.8843      2.00000
     24       8.9099      2.00000
     25       9.4217      2.00000
     26      10.2342      2.01073
     27      11.4970     -0.00000
     28      11.5159     -0.00000
     29      12.5957     -0.00000
     30      14.1112     -0.00000
     31      15.8469     -0.00000
     32      17.9627      0.00000

 k-point    19 :       0.4286    0.4286    0.2857
  band No.  band energies     occupation 
      1     -42.0367      2.00000
      2     -42.0224      2.00000
      3     -42.0052      2.00000
      4     -42.0009      2.00000
      5     -41.8656      2.00000
      6     -41.8625      2.00000
      7     -41.8445      2.00000
      8     -41.8099      2.00000
      9     -41.7894      2.00000
     10       1.6119      2.00000
     11       4.1427      2.00000
     12       4.5489      2.00000
     13       5.1238      2.00000
     14       6.3003      2.00000
     15       6.4201      2.00000
     16       6.4661      2.00000
     17       6.9797      2.00000
     18       6.9987      2.00000
     19       7.3413      2.00000
     20       7.7066      2.00000
     21       8.4179      2.00000
     22       8.4694      2.00000
     23       8.8114      2.00000
     24       9.0456      2.00000
     25       9.4177      2.00000
     26      10.0445      2.00013
     27      10.8891     -0.06935
     28      11.0629     -0.01470
     29      12.4507     -0.00000
     30      14.6491     -0.00000
     31      14.7144     -0.00000
     32      16.5258      0.00000

 k-point    20 :       0.4286    0.4286    0.4286
  band No.  band energies     occupation 
      1     -42.0545      2.00000
      2     -42.0232      2.00000
      3     -42.0230      2.00000
      4     -42.0230      2.00000
      5     -41.8453      2.00000
      6     -41.8453      2.00000
      7     -41.8438      2.00000
      8     -41.7902      2.00000
      9     -41.7902      2.00000
     10       1.4757      2.00000
     11       4.4033      2.00000
     12       4.7229      2.00000
     13       4.7229      2.00000
     14       6.7624      2.00000
     15       6.8037      2.00000
     16       6.8037      2.00000
     17       7.0599      2.00000
     18       7.1363      2.00000
     19       7.1363      2.00000
     20       8.3150      2.00000
     21       8.3150      2.00000
     22       8.3277      2.00000
     23       8.8249      2.00000
     24       8.8249      2.00000
     25       9.8118      2.00000
     26      10.3574      2.05516
     27      10.4392      2.06454
     28      10.4392      2.06454
     29      11.7865     -0.00000
     30      14.1364     -0.00000
     31      14.1364     -0.00000
     32      15.0105     -0.00000


--------------------------------------------------------------------------------------------------------


 soft charge-density along one line, spin component           1
         0         1         2         3         4         5         6         7         8         9
 total charge-density along one line
 
 pseudopotential strength for first ion, spin component:           1
 24.864   0.000 -20.301   0.000  -0.000   0.000   0.000   0.000  -0.000   0.000  -0.000   0.000   0.000   0.000  -0.000   0.000
-20.301   0.000  26.256   0.000   0.000   0.000  -0.000   0.000   0.000   0.000   0.000   0.000  -0.000   0.000   0.000   0.000
 -0.000   0.000   0.000   0.000   5.330   0.000  -0.000   0.000  -0.000   0.000   8.246   0.000  -0.000   0.000  -0.000   0.000
  0.000   0.000  -0.000   0.000  -0.000   0.000   5.330   0.000   0.000   0.000  -0.000   0.000   8.246   0.000   0.000   0.000
 -0.000   0.000   0.000   0.000  -0.000   0.000   0.000   0.000   5.330   0.000  -0.000   0.000   0.000   0.000   8.246   0.000
 -0.000   0.000   0.000   0.000   8.246   0.000  -0.000   0.000  -0.000   0.000  12.818   0.000  -0.000   0.000  -0.000   0.000
  0.000   0.000  -0.000   0.000  -0.000   0.000   8.246   0.000   0.000   0.000  -0.000   0.000  12.818   0.000   0.000   0.000
 -0.000   0.000   0.000   0.000  -0.000   0.000   0.000   0.000   8.246   0.000  -0.000   0.000   0.000   0.000  12.818   0.000
 -0.000   0.000   0.000   0.000  -0.000   0.000  -0.000   0.000  -0.000   0.000  -0.000   0.000  -0.000   0.000  -0.000   0.000
 -0.000   0.000   0.000   0.000   0.000   0.000  -0.000   0.000  -0.000   0.000   0.000   0.000  -0.000   0.000  -0.000   0.000
  0.000   0.000  -0.000   0.000   0.000   0.000   0.000   0.000   0.000   0.000   0.000   0.000   0.000   0.000   0.000   0.000
  0.000   0.000  -0.000   0.000  -0.000   0.000  -0.000   0.000   0.000   0.000  -0.000   0.000  -0.000   0.000   0.000   0.000
 -0.000   0.000   0.000   0.000   0.000   0.000  -0.000   0.000  -0.000   0.000   0.000   0.000  -0.000   0.000  -0.000   0.000
 total augmentation occupancy for first ion, spin component:           1
  1.654   0.065   0.000   0.000   0.000   0.000   0.000   0.000   0.000   0.000   0.000  -0.000  -0.000
  0.065   0.010   0.000   0.000   0.000   0.000   0.000   0.000  -0.000   0.000   0.000  -0.000  -0.000
  0.000   0.000   3.111  -0.000   0.000  -0.979   0.000   0.000   0.000   0.000   0.000   0.000   0.000
  0.000   0.000   0.000   3.111  -0.000  -0.000  -0.979  -0.000   0.000   0.000   0.000   0.000   0.000
  0.000   0.000   0.000   0.000   3.111   0.000   0.000  -0.979   0.000   0.000   0.000   0.000   0.000
  0.000   0.000  -0.979   0.000   0.000   0.316   0.000   0.000   0.000   0.000   0.000   0.000   0.000
  0.000   0.000  -0.000  -0.979  -0.000   0.000   0.316   0.000   0.000   0.000   0.000   0.000   0.000
  0.000   0.000  -0.000  -0.000  -0.979   0.000  -0.000   0.316   0.000   0.000   0.000   0.000   0.000
  0.000  -0.000   0.000   0.000   0.000   0.000   0.000   0.000   0.157  -0.000  -0.000  -0.000  -0.000
  0.000   0.000   0.000   0.000   0.000   0.000   0.000   0.000  -0.000   0.157   0.000   0.000  -0.000
 -0.000  -0.000   0.000   0.000   0.000   0.000   0.000   0.000   0.000   0.000   0.107   0.000   0.000
 -0.000  -0.000   0.000   0.000   0.000   0.000   0.000   0.000  -0.000  -0.000  -0.000   0.157   0.000
 -0.000   0.000   0.000   0.000   0.000   0.000   0.000   0.000  -0.000   0.000   0.000   0.000   0.107


------------------------ aborting loop because EDIFF is reached ----------------------------------------


    CHARGE:  cpu time    0.0068: real time    0.0068
    FORLOC:  cpu time    0.0004: real time    0.0004
    FORNL :  cpu time    0.0352: real time    0.0352
    STRESS:  cpu time    0.1749: real time    0.1750
    FORCOR:  cpu time    0.0034: real time    0.0034
    FORHAR:  cpu time    0.0011: real time    0.0011
    MIXING:  cpu time    0.0003: real time    0.0003
    OFIELD:  cpu time    0.0000: real time    0.0000

  FORCE on cell =-STRESS in cart. coord.  units (eV):
  Direction    XX          YY          ZZ          XY          YZ          ZX
  --------------------------------------------------------------------------------------
  Alpha Z   374.44201   374.44201   374.44201
  Ewald   -1977.09615 -1977.09615 -1977.09615     0.00000     0.00000     0.00000
  Hartree   539.53580   539.53580   539.53580    -0.00000    -0.00000    -0.00000
  E(xc)    -275.05223  -275.05223  -275.05223    -0.00000    -0.00000    -0.00000
  Local     105.32580   105.32580   105.32580     0.00000     0.00000    -0.00000
  n-local   -44.63169   -58.28210   -60.94313     1.60097     4.05313     2.09174
  augment   209.51168   209.51168   209.51168     0.00000     0.00000     0.00000
  Kinetic  1083.61025  1078.40504  1071.83851    -1.92327    -4.94209    -4.19776
  Fock        0.00000     0.00000     0.00000     0.00000     0.00000     0.00000
  -------------------------------------------------------------------------------------
  Total      -0.00079    -0.00079    -0.00079     0.00000    -0.00000     0.00000
  in kB      -0.01891    -0.01891    -0.01891     0.00000    -0.00000     0.00000
  external pressure =       -0.02 kB  Pullay stress =        0.00 kB


 VOLUME and BASIS-vectors are now :
 -----------------------------------------------------------------------------
  energy-cutoff  :      520.00
  volume of cell :       66.82
      direct lattice vectors                 reciprocal lattice vectors
     4.057871827  0.000000000  0.000000000     0.246434595  0.000000000  0.000000000
    -0.000000000  4.057871827 -0.000000000    -0.000000000  0.246434595 -0.000000000
    -0.000000000  0.000000000  4.057871827    -0.000000000  0.000000000  0.246434595

  length of vectors
     4.057871827  4.057871827  4.057871827     0.246434595  0.246434595  0.246434595


 FORCES acting on ions
    electron-ion (+dipol)            ewald-force                    non-local-force                 convergence-correction
 -----------------------------------------------------------------------------------------------
   -.915E-14 -.537E-14 0.357E-12   0.663E-14 -.508E-15 0.194E-14   0.277E-28 -.751E-28 0.000E+00   0.681E-14 -.320E-14 0.447E-16
   -.474E-13 0.604E-12 0.533E-12   0.877E-14 0.125E-13 0.805E-14   0.232E-28 -.495E-28 0.000E+00   -.544E-13 0.485E-13 -.406E-14
   -.396E-13 -.331E-13 -.397E-13   -.536E-14 -.132E-13 -.449E-14   0.637E-28 -.134E-27 0.000E+00   -.348E-13 0.155E-14 -.101E-13
   0.546E-12 -.553E-11 -.345E-13   -.484E-14 0.475E-14 -.446E-14   0.200E-28 -.354E-28 0.000E+00   0.717E-13 0.379E-13 -.129E-13
 -----------------------------------------------------------------------------------------------
   0.449E-12 -.496E-11 0.816E-12   0.519E-14 0.359E-14 0.104E-14   0.135E-27 -.294E-27 0.000E+00   -.107E-13 0.847E-13 -.271E-13
 
 
 POSITION                                       TOTAL-FORCE (eV/Angst)
 -----------------------------------------------------------------------------------
      2.02894      0.00000      2.02894        -0.000000      0.000000      0.000000
     -0.00000      2.02894      2.02894        -0.000000      0.000000      0.000000
     -0.00000     -0.00000     -0.00000        -0.000000     -0.000000      0.000000
      2.02894      2.02894     -0.00000         0.000000     -0.000000      0.000000
 -----------------------------------------------------------------------------------
    total drift:                                0.000000     -0.000000      0.000000


--------------------------------------------------------------------------------------------------------



  FREE ENERGIE OF THE ION-ELECTRON SYSTEM (eV)
  ---------------------------------------------------
  free  energy   TOTEN  =       -23.61987951 eV

  energy  without entropy=      -23.62881732  energy(sigma->0) =      -23.62285878
 
 d Force = 0.0000000E+00[ 0.000E+00, 0.000E+00]  d Energy = 0.1352487E-03-0.135E-03
 d Force = 0.0000000E+00[ 0.000E+00, 0.000E+00]  d Ewald  = 0.3467742E+01-0.347E+01


--------------------------------------------------------------------------------------------------------


    POTLOK:  cpu time    0.0048: real time    0.0049


--------------------------------------------------------------------------------------------------------


 stress matrix after NEB project (eV)
     -0.00079      0.00000      0.00000
      0.00000     -0.00079      0.00000
      0.00000     -0.00000     -0.00079
  FORCES: max atom, RMS     0.000000    0.000000
  FORCE total and by dimension    0.000000    0.000000
  Stress total and by dimension    0.001366    0.000789
 Quasi-Newton relaxation of ions (Broydens 2nd method)
  g(Force)  = 0.206E-65   g(Stress)= 0.225E-07

 retain information from N=  1 steps
 eigenvalues of (default step * inverse Hessian matrix)
  average eigenvalue of G=   0.3293
 eigenvalue spectrum of G is  0.3293


--------------------------------------------------------------------------------------------------------


  
 reached required accuracy - stopping structural energy minimisation
     LOOP+:  cpu time    1.2499: real time    1.2892
    4ORBIT:  cpu time    0.0000: real time    0.0000

 total amount of memory used by VASP MPI-rank0    43581. kBytes
=======================================================================

   base      :      30000. kBytes
   nonl-proj :      10622. kBytes
   fftplans  :        574. kBytes
   grid      :       1105. kBytes
   one-center:         62. kBytes
   wavefun   :       1218. kBytes
 
  
  
 General timing and accounting informations for this job:
 ========================================================
  
                  Total CPU time used (sec):        6.124
                            User time (sec):        5.477
                          System time (sec):        0.647
                         Elapsed time (sec):       14.433
  
                   Maximum memory used (kb):       48124.
                   Average memory used (kb):           0.
  
                          Minor page faults:        33348
                          Major page faults:           42
                 Voluntary context switches:        39469
