<?xml version="1.0" encoding="ISO-8859-1"?>
<modeling>
 <generator>
  <i name="program" type="string">vasp </i>
  <i name="version" type="string">5.4.4.18Apr17-6-g9f103f2a35  </i>
  <i name="subversion" type="string">(build Feb 10 2023 18:30:45) complex            parallel </i>
  <i name="platform" type="string">LinuxIFC </i>
  <i name="date" type="string">2023 05 11 </i>
  <i name="time" type="string">23:56:33 </i>
 </generator>
 <incar>
  <i type="string" name="SYSTEM"> High_opt</i>
  <i type="int" name="ISTART">     0</i>
  <i type="string" name="PREC">normal</i>
  <i type="int" name="ICHARG">     2</i>
  <i type="int" name="IBRION">     1</i>
  <i name="EDIFF">      0.00000100</i>
  <i name="EDIFFG">     -0.01000000</i>
  <i type="int" name="NSW">   100</i>
  <i type="int" name="ISIF">     3</i>
  <i name="ENCUT">    520.00000000</i>
  <i type="logical" name="LWAVE"> F  </i>
  <v type="int" name="KPOINT_BSE">    -1     0     0     0</v>
 </incar>
 <structure name="primitive_cell" >
  <crystal>
   <varray name="basis" >
    <v>       4.05671547       0.00000000       0.00000000 </v>
    <v>       0.00000000       4.05671547       0.00000000 </v>
    <v>       0.00000000       0.00000000       4.05671547 </v>
   </varray>
   <i name="volume">     66.76112474 </i>
   <varray name="rec_basis" >
    <v>       0.24650484       0.00000000       0.00000000 </v>
    <v>       0.00000000       0.24650484       0.00000000 </v>
    <v>       0.00000000       0.00000000       0.24650484 </v>
   </varray>
  </crystal>
  <varray name="positions" >
   <v>      -0.50000000       0.00000000      -0.50000000 </v>
   <v>       0.00000000      -0.50000000      -0.50000000 </v>
   <v>       0.00000000       0.00000000       0.00000000 </v>
   <v>      -0.50000000      -0.50000000       0.00000000 </v>
  </varray>
 </structure>
 <varray name="primitive_index" >
  <v type="int" >        1 </v>
  <v type="int" >        2 </v>
  <v type="int" >        3 </v>
  <v type="int" >        4 </v>
 </varray>
 <kpoints>
  <generation param="Gamma">
   <v type="int" name="divisions">       7        7        7 </v>
   <v name="usershift">      0.00000000       0.00000000       0.00000000 </v>
   <v name="genvec1">      0.14285714       0.00000000       0.00000000 </v>
   <v name="genvec2">      0.00000000       0.14285714       0.00000000 </v>
   <v name="genvec3">      0.00000000       0.00000000       0.14285714 </v>
   <v name="shift">      0.00000000       0.00000000       0.00000000 </v>
  </generation>
  <varray name="kpointlist" >
   <v>       0.00000000       0.00000000       0.00000000 </v>
   <v>       0.14285714       0.00000000       0.00000000 </v>
   <v>       0.28571429       0.00000000       0.00000000 </v>
   <v>       0.42857143       0.00000000       0.00000000 </v>
   <v>       0.14285714       0.14285714       0.00000000 </v>
   <v>       0.28571429       0.14285714       0.00000000 </v>
   <v>       0.42857143       0.14285714       0.00000000 </v>
   <v>       0.28571429       0.28571429       0.00000000 </v>
   <v>       0.42857143       0.28571429       0.00000000 </v>
   <v>       0.42857143       0.42857143       0.00000000 </v>
   <v>       0.14285714       0.14285714       0.14285714 </v>
   <v>       0.28571429       0.14285714       0.14285714 </v>
   <v>       0.42857143       0.14285714       0.14285714 </v>
   <v>       0.28571429       0.28571429       0.14285714 </v>
   <v>       0.42857143       0.28571429       0.14285714 </v>
   <v>       0.42857143       0.42857143       0.14285714 </v>
   <v>       0.28571429       0.28571429       0.28571429 </v>
   <v>       0.42857143       0.28571429       0.28571429 </v>
   <v>       0.42857143       0.42857143       0.28571429 </v>
   <v>       0.42857143       0.42857143       0.42857143 </v>
  </varray>
  <varray name="weights" >
   <v>       0.00291545 </v>
   <v>       0.01749271 </v>
   <v>       0.01749271 </v>
   <v>       0.01749271 </v>
   <v>       0.03498542 </v>
   <v>       0.06997085 </v>
   <v>       0.06997085 </v>
   <v>       0.03498542 </v>
   <v>       0.06997085 </v>
   <v>       0.03498542 </v>
   <v>       0.02332362 </v>
   <v>       0.06997085 </v>
   <v>       0.06997085 </v>
   <v>       0.06997085 </v>
   <v>       0.13994169 </v>
   <v>       0.06997085 </v>
   <v>       0.02332362 </v>
   <v>       0.06997085 </v>
   <v>       0.06997085 </v>
   <v>       0.02332362 </v>
  </varray>
 </kpoints>
 <parameters>
  <separator name="general" >
   <i type="string" name="SYSTEM">High_opt</i>
   <i type="logical" name="LCOMPAT"> F  </i>
  </separator>
  <separator name="electronic" >
   <i type="string" name="PREC">normal</i>
   <i name="ENMAX">    520.00000000</i>
   <i name="ENAUG">    527.01400000</i>
   <i name="EDIFF">      0.00000100</i>
   <i type="int" name="IALGO">    38</i>
   <i type="int" name="IWAVPR">    11</i>
   <i type="int" name="NBANDS">    32</i>
   <i name="NELECT">     52.00000000</i>
   <i type="int" name="TURBO">     0</i>
   <i type="int" name="IRESTART">     0</i>
   <i type="int" name="NREBOOT">     0</i>
   <i type="int" name="NMIN">     0</i>
   <i name="EREF">      0.00000000</i>
   <separator name="electronic smearing" >
    <i type="int" name="ISMEAR">     1</i>
    <i name="SIGMA">      0.20000000</i>
    <i name="KSPACING">      0.50000000</i>
    <i type="logical" name="KGAMMA"> T  </i>
   </separator>
   <separator name="electronic projectors" >
    <i type="logical" name="LREAL"> F  </i>
    <v name="ROPT">      0.00000000      0.00000000</v>
    <i type="int" name="LMAXPAW">  -100</i>
    <i type="int" name="LMAXMIX">     2</i>
    <i type="logical" name="NLSPLINE"> F  </i>
   </separator>
   <separator name="electronic startup" >
    <i type="int" name="ISTART">     0</i>
    <i type="int" name="ICHARG">     2</i>
    <i type="int" name="INIWAV">     1</i>
   </separator>
   <separator name="electronic spin" >
    <i type="int" name="ISPIN">     1</i>
    <i type="logical" name="LNONCOLLINEAR"> F  </i>
    <v name="MAGMOM">      1.00000000      1.00000000      1.00000000      1.00000000</v>
    <i name="NUPDOWN">     -1.00000000</i>
    <i type="logical" name="LSORBIT"> F  </i>
    <v name="SAXIS">      0.00000000      0.00000000      1.00000000</v>
    <i type="logical" name="LSPIRAL"> F  </i>
    <v name="QSPIRAL">      0.00000000      0.00000000      0.00000000</v>
    <i type="logical" name="LZEROZ"> F  </i>
   </separator>
   <separator name="electronic exchange-correlation" >
    <i type="logical" name="LASPH"> F  </i>
    <i type="logical" name="LMETAGGA"> F  </i>
   </separator>
   <separator name="electronic convergence" >
    <i type="int" name="NELM">    60</i>
    <i type="int" name="NELMDL">    -5</i>
    <i type="int" name="NELMIN">     2</i>
    <i name="ENINI">    520.00000000</i>
    <separator name="electronic convergence detail" >
     <i type="logical" name="LDIAG"> T  </i>
     <i type="logical" name="LSUBROT"> F  </i>
     <i name="WEIMIN">      0.00100000</i>
     <i name="EBREAK">      0.00000001</i>
     <i name="DEPER">      0.30000000</i>
     <i type="int" name="NRMM">     4</i>
     <i name="TIME">      0.40000000</i>
    </separator>
   </separator>
   <separator name="electronic mixer" >
    <i name="AMIX">      0.40000000</i>
    <i name="BMIX">      1.00000000</i>
    <i name="AMIN">      0.10000000</i>
    <i name="AMIX_MAG">      1.60000000</i>
    <i name="BMIX_MAG">      1.00000000</i>
    <separator name="electronic mixer details" >
     <i type="int" name="IMIX">     4</i>
     <i type="logical" name="MIXFIRST"> F  </i>
     <i type="int" name="MAXMIX">   -45</i>
     <i name="WC">    100.00000000</i>
     <i type="int" name="INIMIX">     1</i>
     <i type="int" name="MIXPRE">     1</i>
     <i type="int" name="MREMOVE">     5</i>
    </separator>
   </separator>
   <separator name="electronic dipolcorrection" >
    <i type="logical" name="LDIPOL"> F  </i>
    <i type="logical" name="LMONO"> F  </i>
    <i type="int" name="IDIPOL">     0</i>
    <i name="EPSILON">      1.00000000</i>
    <v name="DIPOL">   -100.00000000   -100.00000000   -100.00000000</v>
    <i name="EFIELD">      0.00000000</i>
   </separator>
  </separator>
  <separator name="grids" >
   <i type="int" name="NGX">    24</i>
   <i type="int" name="NGY">    24</i>
   <i type="int" name="NGZ">    24</i>
   <i type="int" name="NGXF">    48</i>
   <i type="int" name="NGYF">    48</i>
   <i type="int" name="NGZF">    48</i>
   <i type="logical" name="ADDGRID"> F  </i>
  </separator>
  <separator name="ionic" >
   <i type="int" name="NSW">   100</i>
   <i type="int" name="IBRION">     1</i>
   <i type="int" name="MDALGO">     0</i>
   <i type="int" name="ISIF">     3</i>
   <i name="PSTRESS">      0.00000000</i>
   <i name="EDIFFG">     -0.01000000</i>
   <i type="int" name="NFREE">     0</i>
   <i name="POTIM">      0.50000000</i>
   <i name="SMASS">     -3.00000000</i>
   <i name="SCALEE">      1.00000000</i>
  </separator>
  <separator name="ionic md" >
   <i name="TEBEG">      0.00010000</i>
   <i name="TEEND">      0.00010000</i>
   <i type="int" name="NBLOCK">     1</i>
   <i type="int" name="KBLOCK">   100</i>
   <i type="int" name="NPACO">   256</i>
   <i name="APACO">     16.00000000</i>
  </separator>
  <separator name="symmetry" >
   <i type="int" name="ISYM">     2</i>
   <i name="SYMPREC">      0.00001000</i>
  </separator>
  <separator name="dos" >
   <i type="int" name="LORBIT">     0</i>
   <v name="RWIGS">     -1.00000000     -1.00000000</v>
   <i type="int" name="NEDOS">   301</i>
   <i name="EMIN">     10.00000000</i>
   <i name="EMAX">    -10.00000000</i>
   <i name="EFERMI">      0.00000000</i>
  </separator>
  <separator name="writing" >
   <i type="int" name="NWRITE">     2</i>
   <i type="logical" name="LWAVE"> F  </i>
   <i type="logical" name="LDOWNSAMPLE"> F  </i>
   <i type="logical" name="LCHARG"> T  </i>
   <i type="logical" name="LPARD"> F  </i>
   <i type="logical" name="LVTOT"> F  </i>
   <i type="logical" name="LVHAR"> F  </i>
   <i type="logical" name="LELF"> F  </i>
   <i type="logical" name="LOPTICS"> F  </i>
   <v name="STM">      0.00000000      0.00000000      0.00000000      0.00000000      0.00000000      0.00000000      0.00000000</v>
  </separator>
  <separator name="performance" >
   <i type="int" name="NPAR">    16</i>
   <i type="int" name="NSIM">     4</i>
   <i type="int" name="NBLK">    -1</i>
   <i type="logical" name="LPLANE"> T  </i>
   <i type="logical" name="LSCALAPACK"> T  </i>
   <i type="logical" name="LSCAAWARE"> F  </i>
   <i type="logical" name="LSCALU"> F  </i>
   <i type="logical" name="LASYNC"> F  </i>
   <i type="logical" name="LORBITALREAL"> F  </i>
  </separator>
  <separator name="miscellaneous" >
   <i type="int" name="IDIOT">     3</i>
   <i type="int" name="ISPECIAL">     0</i>
   <i type="logical" name="LMUSIC"> F  </i>
   <v name="POMASS">    118.71000000    195.08000000</v>
   <v name="DARWINR">      0.00000000      0.00000000</v>
   <v name="DARWINV">      1.00000000      1.00000000</v>
   <i type="logical" name="LCORR"> T  </i>
  </separator>
  <i type="logical" name="GGA_COMPAT"> T  </i>
  <i type="logical" name="LBERRY"> F  </i>
  <i type="int" name="ICORELEVEL">     0</i>
  <i type="logical" name="LDAU"> F  </i>
  <i type="int" name="I_CONSTRAINED_M">     0</i>
  <separator name="electronic exchange-correlation" >
   <i type="string" name="GGA">--</i>
   <i type="int" name="VOSKOWN">     0</i>
   <i type="logical" name="LHFCALC"> F  </i>
   <i type="string" name="PRECFOCK"></i>
   <i type="logical" name="LSYMGRAD"> F  </i>
   <i type="logical" name="LHFONE"> F  </i>
   <i type="logical" name="LRHFCALC"> F  </i>
   <i type="logical" name="LTHOMAS"> F  </i>
   <i type="logical" name="LMODELHF"> F  </i>
   <i name="ENCUT4O">     -1.00000000</i>
   <i type="int" name="EXXOEP">     0</i>
   <i type="int" name="FOURORBIT">     0</i>
   <i name="AEXX">      0.00000000</i>
   <i name="HFALPHA">      0.00000000</i>
   <i name="MCALPHA">      0.00000000</i>
   <i name="ALDAX">      1.00000000</i>
   <i name="AGGAX">      1.00000000</i>
   <i name="ALDAC">      1.00000000</i>
   <i name="AGGAC">      1.00000000</i>
   <i type="int" name="NKREDX">     1</i>
   <i type="int" name="NKREDY">     1</i>
   <i type="int" name="NKREDZ">     1</i>
   <i type="logical" name="SHIFTRED"> F  </i>
   <i type="logical" name="ODDONLY"> F  </i>
   <i type="logical" name="EVENONLY"> F  </i>
   <i type="int" name="LMAXFOCK">     0</i>
   <i type="int" name="NMAXFOCKAE">     0</i>
   <i type="logical" name="LFOCKAEDFT"> F  </i>
   <i name="HFSCREEN">      0.00000000</i>
   <i name="HFSCREENC">      0.00000000</i>
   <i type="int" name="NBANDSGWLOW">     0</i>
  </separator>
  <separator name="vdW DFT" >
   <i type="logical" name="LUSE_VDW"> F  </i>
   <i name="Zab_VDW">     -0.84910000</i>
   <i name="PARAM1">      0.12340000</i>
   <i name="PARAM2">      1.00000000</i>
   <i name="PARAM3">      0.00000000</i>
  </separator>
  <separator name="model GW" >
   <i type="int" name="MODEL_GW">     0</i>
   <i name="MODEL_EPS0">     10.01416871</i>
   <i name="MODEL_ALPHA">      1.00000000</i>
  </separator>
  <separator name="linear response parameters" >
   <i type="logical" name="LEPSILON"> F  </i>
   <i type="logical" name="LRPA"> F  </i>
   <i type="logical" name="LNABLA"> F  </i>
   <i type="logical" name="LVEL"> F  </i>
   <i type="int" name="KINTER">     0</i>
   <i name="CSHIFT">      0.10000000</i>
   <i name="OMEGAMAX">     -1.00000000</i>
   <i name="DEG_THRESHOLD">      0.00200000</i>
   <i name="RTIME">     -0.10000000</i>
   <i name="WPLASMAI">      0.00000000</i>
   <v name="DFIELD">      0.00000000      0.00000000      0.00000000</v>
   <v name="WPLASMA">      0.00000000      0.00000000      0.00000000      0.00000000      0.00000000      0.00000000      0.00000000      0.00000000      0.00000000</v>
  </separator>
  <separator name="orbital magnetization" >
   <i type="logical" name="NUCIND"> F  </i>
   <v name="MAGPOS">      0.00000000      0.00000000      0.00000000</v>
   <i type="logical" name="LNICSALL"> T  </i>
   <i type="logical" name="ORBITALMAG"> F  </i>
   <i type="logical" name="LMAGBLOCH"> F  </i>
   <i type="logical" name="LCHIMAG"> F  </i>
   <i type="logical" name="LGAUGE"> T  </i>
   <i type="int" name="MAGATOM">     0</i>
   <v name="MAGDIPOL">      0.00000000      0.00000000      0.00000000</v>
   <v name="AVECCONST">      0.00000000      0.00000000      0.00000000</v>
  </separator>
  <separator name="response functions" >
   <i type="logical" name="LADDER"> F  </i>
   <i type="logical" name="LRPAFORCE"> F  </i>
   <i type="logical" name="LFXC"> F  </i>
   <i type="logical" name="LHARTREE"> T  </i>
   <i type="int" name="IBSE">     0</i>
   <v type="int" name="KPOINT">    -1     0     0     0</v>
   <i type="logical" name="LTCTE"> F  </i>
   <i type="logical" name="LTETE"> F  </i>
   <i type="logical" name="LTRIPLET"> F  </i>
   <i type="logical" name="LFXCEPS"> F  </i>
   <i type="logical" name="LFXHEG"> F  </i>
   <i type="int" name="NATURALO">     2</i>
   <i type="logical" name="L2ORDER"> F  </i>
   <i type="logical" name="LMP2LT"> F  </i>
   <i type="logical" name="LUSEW"> F  </i>
   <i name="ENCUTGW">     -2.00000000</i>
   <i name="ENCUTGWSOFT">     -2.00000000</i>
   <i name="ENCUTLF">     -1.00000000</i>
   <i type="int" name="LMAXMP2">    -1</i>
   <i name="SCISSOR">      0.00000000</i>
   <i type="int" name="NOMEGA">     0</i>
   <i type="int" name="NOMEGAR">     0</i>
   <i type="int" name="NBANDSGW">    -1</i>
   <i type="int" name="NBANDSO">    -1</i>
   <i type="int" name="NBANDSV">    -1</i>
   <i type="int" name="NELM">     1</i>
   <i type="int" name="NELMHF">     1</i>
   <i type="int" name="DIM">     3</i>
   <i type="int" name="ANTIRES">     0</i>
   <i name="OMEGAMAX">    -30.00000000</i>
   <i name="OMEGAMIN">    -30.00000000</i>
   <i name="OMEGATL">   -200.00000000</i>
   <i type="int" name="OMEGAGRID">   140</i>
   <i name="CSHIFT">     -0.10000000</i>
   <i type="logical" name="SELFENERGY"> F  </i>
   <i type="logical" name="LSPECTRAL"> F  </i>
   <i type="logical" name="LSPECTRALGW"> F  </i>
   <i type="logical" name="LSINGLES"> F  </i>
   <i type="logical" name="LFERMIGW"> F  </i>
   <i type="logical" name="ODDONLYGW"> F  </i>
   <i type="logical" name="EVENONLYGW"> F  </i>
   <i type="int" name="NKREDLFX">     1</i>
   <i type="int" name="NKREDLFY">     1</i>
   <i type="int" name="NKREDLFZ">     1</i>
   <i type="int" name="MAXMEM">  2800</i>
   <i type="int" name="TELESCOPE">     0</i>
   <i type="int" name="TAUPAR">     1</i>
   <i type="int" name="OMEGAPAR">    -1</i>
   <i name="LAMBDA">      1.00000000</i>
  </separator>
  <separator name="External order field" >
   <i name="OFIELD_KAPPA">      0.00000000</i>
   <v name="OFIELD_K">      0.00000000      0.00000000      0.00000000</v>
   <i name="OFIELD_Q6_NEAR">      0.00000000</i>
   <i name="OFIELD_Q6_FAR">      0.00000000</i>
   <i name="OFIELD_A">      0.00000000</i>
  </separator>
  <separator name="solvation model" >
   <i type="logical" name="LSOL"> F  </i>
  </separator>
 </parameters>
 <atominfo>
  <atoms>       4 </atoms>
  <types>       2 </types>
  <array name="atoms" >
   <dimension dim="1">ion</dimension>
   <field type="string">element</field>
   <field type="int">atomtype</field>
   <set>
    <rc><c>Sn</c><c>   1</c></rc>
    <rc><c>Pt</c><c>   2</c></rc>
    <rc><c>Pt</c><c>   2</c></rc>
    <rc><c>Pt</c><c>   2</c></rc>
   </set>
  </array>
  <array name="atomtypes" >
   <dimension dim="1">type</dimension>
   <field type="int">atomspertype</field>
   <field type="string">element</field>
   <field>mass</field>
   <field>valence</field>
   <field type="string">pseudopotential</field>
   <set>
    <rc><c>   1</c><c>Sn</c><c>    118.71000000</c><c>      4.00000000</c><c>  PAW_PBE Sn 08Apr2002                  </c></rc>
    <rc><c>   3</c><c>Pt</c><c>    195.08000000</c><c>     16.00000000</c><c>  PAW_PBE Pt_pv 12Dec2005               </c></rc>
   </set>
  </array>
 </atominfo>
 <structure name="initialpos" >
  <crystal>
   <varray name="basis" >
    <v>       4.05671547       0.00000000       0.00000000 </v>
    <v>       0.00000000       4.05671547       0.00000000 </v>
    <v>       0.00000000       0.00000000       4.05671547 </v>
   </varray>
   <i name="volume">     66.76112474 </i>
   <varray name="rec_basis" >
    <v>       0.24650484       0.00000000       0.00000000 </v>
    <v>       0.00000000       0.24650484       0.00000000 </v>
    <v>       0.00000000       0.00000000       0.24650484 </v>
   </varray>
  </crystal>
  <varray name="positions" >
   <v>       0.50000000       0.00000000       0.50000000 </v>
   <v>       0.00000000       0.50000000       0.50000000 </v>
   <v>       0.00000000       0.00000000       0.00000000 </v>
   <v>       0.50000000       0.50000000       0.00000000 </v>
  </varray>
 </structure>
 <calculation>
  <scstep>
   <time name="dav">    0.16    0.18</time>
   <time name="total">    0.17    0.20</time>
   <energy>
    <i name="alphaZ">    374.76230354 </i>
    <i name="ewald">  -5932.97684768 </i>
    <i name="hartreedc">  -1663.66785934 </i>
    <i name="XCdc">     73.57748989 </i>
    <i name="pawpsdc">   6386.67317835 </i>
    <i name="pawaedc">  -6158.06938359 </i>
    <i name="eentropy">     -0.00754347 </i>
    <i name="bandstr">    -11.96744753 </i>
    <i name="atom">   7378.79718843 </i>
    <i name="e_fr_energy">    447.12107860 </i>
    <i name="e_wo_entrp">    447.12862208 </i>
    <i name="e_0_energy">    447.12359309 </i>
   </energy>
  </scstep>
  <scstep>
   <time name="dav">    0.19    0.20</time>
   <time name="total">    0.19    0.20</time>
   <energy>
    <i name="e_fr_energy">    -16.69227996 </i>
    <i name="e_wo_entrp">    -16.69702212 </i>
    <i name="e_0_energy">    -16.69386068 </i>
   </energy>
  </scstep>
  <scstep>
   <time name="dav">    0.17    0.18</time>
   <time name="total">    0.17    0.18</time>
   <energy>
    <i name="e_fr_energy">    -24.44780300 </i>
    <i name="e_wo_entrp">    -24.45468617 </i>
    <i name="e_0_energy">    -24.45009739 </i>
   </energy>
  </scstep>
  <scstep>
   <time name="dav">    0.17    0.19</time>
   <time name="total">    0.17    0.19</time>
   <energy>
    <i name="e_fr_energy">    -24.51617076 </i>
    <i name="e_wo_entrp">    -24.52455499 </i>
    <i name="e_0_energy">    -24.51896550 </i>
   </energy>
  </scstep>
  <scstep>
   <time name="dav">    0.18    0.19</time>
   <time name="total">    0.19    0.20</time>
   <energy>
    <i name="e_fr_energy">    -24.51692053 </i>
    <i name="e_wo_entrp">    -24.52530987 </i>
    <i name="e_0_energy">    -24.51971698 </i>
   </energy>
  </scstep>
  <scstep>
   <time name="dav">    0.15    0.16</time>
   <time name="total">    0.17    0.18</time>
   <energy>
    <i name="e_fr_energy">    -23.72139207 </i>
    <i name="e_wo_entrp">    -23.72997105 </i>
    <i name="e_0_energy">    -23.72425173 </i>
   </energy>
  </scstep>
  <scstep>
   <time name="dav">    0.16    0.16</time>
   <time name="total">    0.17    0.19</time>
   <energy>
    <i name="e_fr_energy">    -23.64074085 </i>
    <i name="e_wo_entrp">    -23.64966101 </i>
    <i name="e_0_energy">    -23.64371423 </i>
   </energy>
  </scstep>
  <scstep>
   <time name="dav">    0.18    0.19</time>
   <time name="total">    0.20    0.21</time>
   <energy>
    <i name="e_fr_energy">    -23.62033743 </i>
    <i name="e_wo_entrp">    -23.62930819 </i>
    <i name="e_0_energy">    -23.62332768 </i>
   </energy>
  </scstep>
  <scstep>
   <time name="dav">    0.15    0.16</time>
   <time name="total">    0.17    0.18</time>
   <energy>
    <i name="e_fr_energy">    -23.61982269 </i>
    <i name="e_wo_entrp">    -23.62875001 </i>
    <i name="e_0_energy">    -23.62279846 </i>
   </energy>
  </scstep>
  <scstep>
   <time name="dav">    0.16    0.17</time>
   <time name="total">    0.18    0.20</time>
   <energy>
    <i name="e_fr_energy">    -23.61984554 </i>
    <i name="e_wo_entrp">    -23.62877917 </i>
    <i name="e_0_energy">    -23.62282341 </i>
   </energy>
  </scstep>
  <scstep>
   <time name="dav">    0.16    0.17</time>
   <time name="total">    0.18    0.19</time>
   <energy>
    <i name="e_fr_energy">    -23.61985107 </i>
    <i name="e_wo_entrp">    -23.62878505 </i>
    <i name="e_0_energy">    -23.62282906 </i>
   </energy>
  </scstep>
  <scstep>
   <time name="dav">    0.12    0.12</time>
   <time name="total">    0.12    0.14</time>
   <energy>
    <i name="alphaZ">    374.76230354 </i>
    <i name="ewald">  -5932.97684768 </i>
    <i name="hartreedc">  -1617.80202048 </i>
    <i name="XCdc">     71.92033765 </i>
    <i name="pawpsdc">   7339.31584760 </i>
    <i name="pawaedc">  -7116.98433652 </i>
    <i name="eentropy">      0.00893413 </i>
    <i name="bandstr">   -520.66125779 </i>
    <i name="atom">   7378.79718843 </i>
    <i name="e_fr_energy">    -23.61985113 </i>
    <i name="e_wo_entrp">    -23.62878526 </i>
    <i name="e_0_energy">    -23.62282917 </i>
   </energy>
  </scstep>
  <structure>
   <crystal>
    <varray name="basis" >
     <v>       4.05671547       0.00000000       0.00000000 </v>
     <v>       0.00000000       4.05671547       0.00000000 </v>
     <v>       0.00000000       0.00000000       4.05671547 </v>
    </varray>
    <i name="volume">     66.76112474 </i>
    <varray name="rec_basis" >
     <v>       0.24650484       0.00000000       0.00000000 </v>
     <v>       0.00000000       0.24650484       0.00000000 </v>
     <v>       0.00000000       0.00000000       0.24650484 </v>
    </varray>
   </crystal>
   <varray name="positions" >
    <v>       0.50000000       0.00000000       0.50000000 </v>
    <v>       0.00000000       0.50000000       0.50000000 </v>
    <v>       0.00000000       0.00000000       0.00000000 </v>
    <v>       0.50000000       0.50000000       0.00000000 </v>
   </varray>
  </structure>
  <varray name="forces" >
   <v>       0.00000000       0.00000000       0.00000000 </v>
   <v>       0.00000000       0.00000000       0.00000000 </v>
   <v>       0.00000000       0.00000000       0.00000000 </v>
   <v>       0.00000000       0.00000000       0.00000000 </v>
  </varray>
  <varray name="stress" >
   <v>       1.73156698       0.00000000       0.00000000 </v>
   <v>      -0.00000000       1.73156698      -0.00000000 </v>
   <v>      -0.00000000       0.00000000       1.73156698 </v>
  </varray>
  <energy>
   <i name="e_fr_energy">    -23.61985113 </i>
   <i name="e_wo_entrp">    -23.62282917 </i>
   <i name="e_0_energy">      0.00893413 </i>
  </energy>
  <time name="totalsc">    2.67    5.57</time>
 </calculation>
 <calculation>
  <scstep>
   <time name="dav">    0.13    0.13</time>
   <time name="total">    0.14    0.15</time>
   <energy>
    <i name="alphaZ">    373.78563928 </i>
    <i name="ewald">  -5927.81840689 </i>
    <i name="hartreedc">  -1616.39673254 </i>
    <i name="XCdc">     71.73630514 </i>
    <i name="pawpsdc">   7339.22426034 </i>
    <i name="pawaedc">  -7116.89099414 </i>
    <i name="eentropy">      0.00878595 </i>
    <i name="bandstr">   -526.07378629 </i>
    <i name="atom">   7378.79718843 </i>
    <i name="e_fr_energy">    -23.62774073 </i>
    <i name="e_wo_entrp">    -23.63652669 </i>
    <i name="e_0_energy">    -23.63066938 </i>
   </energy>
  </scstep>
  <scstep>
   <time name="dav">    0.13    0.14</time>
   <time name="total">    0.15    0.17</time>
   <energy>
    <i name="e_fr_energy">    -23.61983117 </i>
    <i name="e_wo_entrp">    -23.62880870 </i>
    <i name="e_0_energy">    -23.62282368 </i>
   </energy>
  </scstep>
  <scstep>
   <time name="dav">    0.13    0.13</time>
   <time name="total">    0.15    0.16</time>
   <energy>
    <i name="e_fr_energy">    -23.61974203 </i>
    <i name="e_wo_entrp">    -23.62869818 </i>
    <i name="e_0_energy">    -23.62272741 </i>
   </energy>
  </scstep>
  <scstep>
   <time name="dav">    0.17    0.17</time>
   <time name="total">    0.19    0.21</time>
   <energy>
    <i name="e_fr_energy">    -23.61974284 </i>
    <i name="e_wo_entrp">    -23.62868695 </i>
    <i name="e_0_energy">    -23.62272421 </i>
   </energy>
  </scstep>
  <scstep>
   <time name="dav">    0.16    0.16</time>
   <time name="total">    0.18    0.20</time>
   <energy>
    <i name="e_fr_energy">    -23.61974621 </i>
    <i name="e_wo_entrp">    -23.62869291 </i>
    <i name="e_0_energy">    -23.62272845 </i>
   </energy>
  </scstep>
  <scstep>
   <time name="dav">    0.16    0.16</time>
   <time name="total">    0.18    0.19</time>
   <energy>
    <i name="e_fr_energy">    -23.61974439 </i>
    <i name="e_wo_entrp">    -23.62868913 </i>
    <i name="e_0_energy">    -23.62272597 </i>
   </energy>
  </scstep>
  <scstep>
   <time name="dav">    0.09    0.09</time>
   <time name="total">    0.10    0.11</time>
   <energy>
    <i name="alphaZ">    373.78563928 </i>
    <i name="ewald">  -5927.81840689 </i>
    <i name="hartreedc">  -1620.26182373 </i>
    <i name="XCdc">     71.87651866 </i>
    <i name="pawpsdc">   7328.52365213 </i>
    <i name="pawaedc">  -7106.15411718 </i>
    <i name="eentropy">      0.00894484 </i>
    <i name="bandstr">   -522.37733979 </i>
    <i name="atom">   7378.79718843 </i>
    <i name="e_fr_energy">    -23.61974426 </i>
    <i name="e_wo_entrp">    -23.62868910 </i>
    <i name="e_0_energy">    -23.62272588 </i>
   </energy>
  </scstep>
  <structure>
   <crystal>
    <varray name="basis" >
     <v>       4.06024566       0.00000000       0.00000000 </v>
     <v>      -0.00000000       4.06024566      -0.00000000 </v>
     <v>      -0.00000000       0.00000000       4.06024566 </v>
    </varray>
    <i name="volume">     66.93556485 </i>
    <varray name="rec_basis" >
     <v>       0.24629052       0.00000000       0.00000000 </v>
     <v>      -0.00000000       0.24629052      -0.00000000 </v>
     <v>      -0.00000000       0.00000000       0.24629052 </v>
    </varray>
   </crystal>
   <varray name="positions" >
    <v>       0.50000000       0.00000000       0.50000000 </v>
    <v>       0.00000000       0.50000000       0.50000000 </v>
    <v>       0.00000000       0.00000000       0.00000000 </v>
    <v>       0.50000000       0.50000000       0.00000000 </v>
   </varray>
  </structure>
  <varray name="forces" >
   <v>       0.00000000       0.00000000       0.00000000 </v>
   <v>      -0.00000000       0.00000000       0.00000000 </v>
   <v>      -0.00000000      -0.00000000       0.00000000 </v>
   <v>       0.00000000      -0.00000000       0.00000000 </v>
  </varray>
  <varray name="stress" >
   <v>      -3.54231102       0.00000000       0.00000000 </v>
   <v>       0.00000000      -3.54231102       0.00000000 </v>
   <v>      -0.00000000       0.00000000      -3.54231102 </v>
  </varray>
  <energy>
   <i name="e_fr_energy">    -23.61974426 </i>
   <i name="e_wo_entrp">    -23.62272588 </i>
   <i name="e_0_energy">      0.00894484 </i>
  </energy>
  <time name="totalsc">    1.35    1.66</time>
 </calculation>
 <calculation>
  <scstep>
   <time name="dav">    0.13    0.13</time>
   <time name="total">    0.14    0.15</time>
   <energy>
    <i name="alphaZ">    374.44201097 </i>
    <i name="ewald">  -5931.28614934 </i>
    <i name="hartreedc">  -1621.21043638 </i>
    <i name="XCdc">     72.00035918 </i>
    <i name="pawpsdc">   7328.50589050 </i>
    <i name="pawaedc">  -7106.13624305 </i>
    <i name="eentropy">      0.00901312 </i>
    <i name="bandstr">   -518.74511320 </i>
    <i name="atom">   7378.79718843 </i>
    <i name="e_fr_energy">    -23.62347977 </i>
    <i name="e_wo_entrp">    -23.63249289 </i>
    <i name="e_0_energy">    -23.62648414 </i>
   </energy>
  </scstep>
  <scstep>
   <time name="dav">    0.13    0.13</time>
   <time name="total">    0.15    0.15</time>
   <energy>
    <i name="e_fr_energy">    -23.61988272 </i>
    <i name="e_wo_entrp">    -23.62879796 </i>
    <i name="e_0_energy">    -23.62285446 </i>
   </energy>
  </scstep>
  <scstep>
   <time name="dav">    0.13    0.13</time>
   <time name="total">    0.14    0.15</time>
   <energy>
    <i name="e_fr_energy">    -23.61985358 </i>
    <i name="e_wo_entrp">    -23.62878369 </i>
    <i name="e_0_energy">    -23.62283029 </i>
   </energy>
  </scstep>
  <scstep>
   <time name="dav">    0.17    0.17</time>
   <time name="total">    0.18    0.18</time>
   <energy>
    <i name="e_fr_energy">    -23.61986863 </i>
    <i name="e_wo_entrp">    -23.62880696 </i>
    <i name="e_0_energy">    -23.62284807 </i>
   </energy>
  </scstep>
  <scstep>
   <time name="dav">    0.16    0.16</time>
   <time name="total">    0.18    0.18</time>
   <energy>
    <i name="e_fr_energy">    -23.61987801 </i>
    <i name="e_wo_entrp">    -23.62881453 </i>
    <i name="e_0_energy">    -23.62285685 </i>
   </energy>
  </scstep>
  <scstep>
   <time name="dav">    0.12    0.12</time>
   <time name="total">    0.13    0.13</time>
   <energy>
    <i name="e_fr_energy">    -23.61987938 </i>
    <i name="e_wo_entrp">    -23.62881722 </i>
    <i name="e_0_energy">    -23.62285866 </i>
   </energy>
  </scstep>
  <scstep>
   <time name="dav">    0.09    0.09</time>
   <time name="total">    0.10    0.11</time>
   <energy>
    <i name="alphaZ">    374.44201097 </i>
    <i name="ewald">  -5931.28614934 </i>
    <i name="hartreedc">  -1618.61012562 </i>
    <i name="XCdc">     71.90599988 </i>
    <i name="pawpsdc">   7335.69342753 </i>
    <i name="pawaedc">  -7113.34836876 </i>
    <i name="eentropy">      0.00893780 </i>
    <i name="bandstr">   -521.22280039 </i>
    <i name="atom">   7378.79718843 </i>
    <i name="e_fr_energy">    -23.61987951 </i>
    <i name="e_wo_entrp">    -23.62881732 </i>
    <i name="e_0_energy">    -23.62285878 </i>
   </energy>
  </scstep>
  <structure>
   <crystal>
    <varray name="basis" >
     <v>       4.05787183       0.00000000       0.00000000 </v>
     <v>      -0.00000000       4.05787183      -0.00000000 </v>
     <v>      -0.00000000       0.00000000       4.05787183 </v>
    </varray>
    <i name="volume">     66.81823130 </i>
    <varray name="rec_basis" >
     <v>       0.24643459       0.00000000       0.00000000 </v>
     <v>      -0.00000000       0.24643459      -0.00000000 </v>
     <v>      -0.00000000       0.00000000       0.24643459 </v>
    </varray>
   </crystal>
   <varray name="positions" >
    <v>       0.50000000       0.00000000       0.50000000 </v>
    <v>      -0.00000000       0.50000000       0.50000000 </v>
    <v>      -0.00000000      -0.00000000      -0.00000000 </v>
    <v>       0.50000000       0.50000000      -0.00000000 </v>
   </varray>
  </structure>
  <varray name="forces" >
   <v>      -0.00000000       0.00000000       0.00000000 </v>
   <v>      -0.00000000       0.00000000       0.00000000 </v>
   <v>      -0.00000000      -0.00000000       0.00000000 </v>
   <v>       0.00000000      -0.00000000       0.00000000 </v>
  </varray>
  <varray name="stress" >
   <v>      -0.01891417       0.00000000       0.00000000 </v>
   <v>       0.00000000      -0.01891417       0.00000000 </v>
   <v>       0.00000000      -0.00000000      -0.01891417 </v>
  </varray>
  <energy>
   <i name="e_fr_energy">    -23.61987951 </i>
   <i name="e_wo_entrp">    -23.62285878 </i>
   <i name="e_0_energy">      0.00893780 </i>
  </energy>
  <time name="totalsc">    1.25    1.29</time>
  <eigenvalues>
   <array>
    <dimension dim="1">band</dimension>
    <dimension dim="2">kpoint</dimension>
    <dimension dim="3">spin</dimension>
    <field>eigene</field>
    <field>occ</field>
    <set>
     <set comment="spin 1">
      <set comment="kpoint 1">
       <r>  -42.0281    1.0000 </r>
       <r>  -42.0281    1.0000 </r>
       <r>  -42.0281    1.0000 </r>
       <r>  -41.9165    1.0000 </r>
       <r>  -41.9165    1.0000 </r>
       <r>  -41.9165    1.0000 </r>
       <r>  -41.7971    1.0000 </r>
       <r>  -41.7971    1.0000 </r>
       <r>  -41.7971    1.0000 </r>
       <r>   -0.9228    1.0000 </r>
       <r>    3.9242    1.0000 </r>
       <r>    5.2089    1.0000 </r>
       <r>    5.2089    1.0000 </r>
       <r>    5.3265    1.0000 </r>
       <r>    5.3265    1.0000 </r>
       <r>    5.3265    1.0000 </r>
       <r>    8.1752    1.0000 </r>
       <r>    8.1752    1.0000 </r>
       <r>    8.1752    1.0000 </r>
       <r>    9.4789    1.0000 </r>
       <r>    9.4789    1.0000 </r>
       <r>    9.5477    1.0000 </r>
       <r>    9.5477    1.0000 </r>
       <r>    9.5477    1.0000 </r>
       <r>   10.2598    1.0083 </r>
       <r>   10.7707    0.0964 </r>
       <r>   10.7707    0.0964 </r>
       <r>   10.7707    0.0964 </r>
       <r>   13.3078   -0.0000 </r>
       <r>   16.6007    0.0000 </r>
       <r>   16.6007    0.0000 </r>
       <r>   18.3424    0.0000 </r>
      </set>
      <set comment="kpoint 2">
       <r>  -42.0219    1.0000 </r>
       <r>  -42.0219    1.0000 </r>
       <r>  -42.0184    1.0000 </r>
       <r>  -41.9181    1.0000 </r>
       <r>  -41.9181    1.0000 </r>
       <r>  -41.9168    1.0000 </r>
       <r>  -41.8078    1.0000 </r>
       <r>  -41.8015    1.0000 </r>
       <r>  -41.8015    1.0000 </r>
       <r>   -0.7021    1.0000 </r>
       <r>    4.0530    1.0000 </r>
       <r>    5.0290    1.0000 </r>
       <r>    5.3817    1.0000 </r>
       <r>    5.3875    1.0000 </r>
       <r>    5.3875    1.0000 </r>
       <r>    5.4011    1.0000 </r>
       <r>    7.7760    1.0000 </r>
       <r>    7.7760    1.0000 </r>
       <r>    8.0759    1.0000 </r>
       <r>    8.5833    1.0000 </r>
       <r>    9.4406    1.0000 </r>
       <r>    9.4659    1.0000 </r>
       <r>    9.5309    1.0000 </r>
       <r>    9.5309    1.0000 </r>
       <r>   10.0586    1.0001 </r>
       <r>   10.7712    0.0951 </r>
       <r>   11.2228   -0.0002 </r>
       <r>   11.2228   -0.0002 </r>
       <r>   13.6713   -0.0000 </r>
       <r>   16.5342    0.0000 </r>
       <r>   16.5590    0.0000 </r>
       <r>   18.4137    0.0000 </r>
      </set>
      <set comment="kpoint 3">
       <r>  -42.0059    1.0000 </r>
       <r>  -42.0059    1.0000 </r>
       <r>  -41.9916    1.0000 </r>
       <r>  -41.9233    1.0000 </r>
       <r>  -41.9233    1.0000 </r>
       <r>  -41.9172    1.0000 </r>
       <r>  -41.8371    1.0000 </r>
       <r>  -41.8119    1.0000 </r>
       <r>  -41.8119    1.0000 </r>
       <r>   -0.0682    1.0000 </r>
       <r>    3.9245    1.0000 </r>
       <r>    4.7805    1.0000 </r>
       <r>    5.5170    1.0000 </r>
       <r>    5.5170    1.0000 </r>
       <r>    5.5209    1.0000 </r>
       <r>    5.9348    1.0000 </r>
       <r>    7.3287    1.0000 </r>
       <r>    7.3287    1.0000 </r>
       <r>    7.6685    1.0000 </r>
       <r>    7.8402    1.0000 </r>
       <r>    8.9177    1.0000 </r>
       <r>    8.9998    1.0000 </r>
       <r>    8.9998    1.0000 </r>
       <r>    9.2603    1.0000 </r>
       <r>    9.6618    1.0000 </r>
       <r>   10.7726    0.0918 </r>
       <r>   12.5280   -0.0000 </r>
       <r>   12.5280   -0.0000 </r>
       <r>   13.0659   -0.0000 </r>
       <r>   16.4606    0.0000 </r>
       <r>   17.7001    0.0000 </r>
       <r>   17.7001    0.0000 </r>
      </set>
      <set comment="kpoint 4">
       <r>  -41.9892    1.0000 </r>
       <r>  -41.9892    1.0000 </r>
       <r>  -41.9587    1.0000 </r>
       <r>  -41.9310    1.0000 </r>
       <r>  -41.9310    1.0000 </r>
       <r>  -41.9176    1.0000 </r>
       <r>  -41.8719    1.0000 </r>
       <r>  -41.8207    1.0000 </r>
       <r>  -41.8207    1.0000 </r>
       <r>    0.8088    1.0000 </r>
       <r>    2.8550    1.0000 </r>
       <r>    5.1510    1.0000 </r>
       <r>    5.5934    1.0000 </r>
       <r>    5.5934    1.0000 </r>
       <r>    5.6537    1.0000 </r>
       <r>    6.5955    1.0000 </r>
       <r>    7.2448    1.0000 </r>
       <r>    7.2448    1.0000 </r>
       <r>    7.3856    1.0000 </r>
       <r>    7.6320    1.0000 </r>
       <r>    8.3360    1.0000 </r>
       <r>    8.4297    1.0000 </r>
       <r>    8.4297    1.0000 </r>
       <r>    8.5995    1.0000 </r>
       <r>    9.5872    1.0000 </r>
       <r>   10.7737    0.0894 </r>
       <r>   12.4552   -0.0000 </r>
       <r>   14.0570   -0.0000 </r>
       <r>   14.0570   -0.0000 </r>
       <r>   16.3208    0.0000 </r>
       <r>   16.3208    0.0000 </r>
       <r>   16.3749    0.0000 </r>
      </set>
      <set comment="kpoint 5">
       <r>  -42.0244    1.0000 </r>
       <r>  -42.0157    1.0000 </r>
       <r>  -42.0023    1.0000 </r>
       <r>  -41.9276    1.0000 </r>
       <r>  -41.9193    1.0000 </r>
       <r>  -41.9085    1.0000 </r>
       <r>  -41.8259    1.0000 </r>
       <r>  -41.8064    1.0000 </r>
       <r>  -41.7971    1.0000 </r>
       <r>   -0.4869    1.0000 </r>
       <r>    4.1728    1.0000 </r>
       <r>    5.0630    1.0000 </r>
       <r>    5.3153    1.0000 </r>
       <r>    5.3505    1.0000 </r>
       <r>    5.4352    1.0000 </r>
       <r>    5.5872    1.0000 </r>
       <r>    7.3169    1.0000 </r>
       <r>    7.4863    1.0000 </r>
       <r>    8.2632    1.0000 </r>
       <r>    8.3356    1.0000 </r>
       <r>    9.2012    1.0000 </r>
       <r>    9.2372    1.0000 </r>
       <r>    9.3970    1.0000 </r>
       <r>    9.6331    1.0000 </r>
       <r>    9.8573    1.0000 </r>
       <r>   10.5197    0.9564 </r>
       <r>   11.1804   -0.0007 </r>
       <r>   11.8020   -0.0000 </r>
       <r>   14.1886   -0.0000 </r>
       <r>   16.4010    0.0000 </r>
       <r>   16.5412    0.0000 </r>
       <r>   18.0336    0.0000 </r>
      </set>
      <set comment="kpoint 6">
       <r>  -42.0139    1.0000 </r>
       <r>  -41.9995    1.0000 </r>
       <r>  -41.9774    1.0000 </r>
       <r>  -41.9392    1.0000 </r>
       <r>  -41.9237    1.0000 </r>
       <r>  -41.9000    1.0000 </r>
       <r>  -41.8554    1.0000 </r>
       <r>  -41.8179    1.0000 </r>
       <r>  -41.8021    1.0000 </r>
       <r>    0.1281    1.0000 </r>
       <r>    4.0534    1.0000 </r>
       <r>    4.8568    1.0000 </r>
       <r>    5.3687    1.0000 </r>
       <r>    5.4433    1.0000 </r>
       <r>    5.8238    1.0000 </r>
       <r>    5.8278    1.0000 </r>
       <r>    6.9007    1.0000 </r>
       <r>    7.3358    1.0000 </r>
       <r>    7.5208    1.0000 </r>
       <r>    8.1756    1.0000 </r>
       <r>    8.5823    1.0000 </r>
       <r>    8.8904    1.0000 </r>
       <r>    9.1008    1.0000 </r>
       <r>    9.3842    1.0000 </r>
       <r>    9.5600    1.0000 </r>
       <r>   10.3952    1.0344 </r>
       <r>   11.7111   -0.0000 </r>
       <r>   13.0032   -0.0000 </r>
       <r>   13.6829   -0.0000 </r>
       <r>   15.8590   -0.0000 </r>
       <r>   17.1250    0.0000 </r>
       <r>   18.1721    0.0000 </r>
      </set>
      <set comment="kpoint 7">
       <r>  -41.9932    1.0000 </r>
       <r>  -41.9822    1.0000 </r>
       <r>  -41.9708    1.0000 </r>
       <r>  -41.9382    1.0000 </r>
       <r>  -41.9308    1.0000 </r>
       <r>  -41.8933    1.0000 </r>
       <r>  -41.8837    1.0000 </r>
       <r>  -41.8278    1.0000 </r>
       <r>  -41.8108    1.0000 </r>
       <r>    0.9636    1.0000 </r>
       <r>    3.0415    1.0000 </r>
       <r>    5.2115    1.0000 </r>
       <r>    5.4511    1.0000 </r>
       <r>    5.4937    1.0000 </r>
       <r>    5.8042    1.0000 </r>
       <r>    6.4797    1.0000 </r>
       <r>    6.9333    1.0000 </r>
       <r>    7.0807    1.0000 </r>
       <r>    7.6484    1.0000 </r>
       <r>    7.7236    1.0000 </r>
       <r>    7.9645    1.0000 </r>
       <r>    8.4943    1.0000 </r>
       <r>    8.6094    1.0000 </r>
       <r>    8.9947    1.0000 </r>
       <r>    9.4587    1.0000 </r>
       <r>   10.3801    1.0322 </r>
       <r>   12.0268   -0.0000 </r>
       <r>   13.6779   -0.0000 </r>
       <r>   14.4146   -0.0000 </r>
       <r>   14.9001   -0.0000 </r>
       <r>   16.8051    0.0000 </r>
       <r>   17.3588    0.0000 </r>
      </set>
      <set comment="kpoint 8">
       <r>  -42.0165    1.0000 </r>
       <r>  -41.9824    1.0000 </r>
       <r>  -41.9586    1.0000 </r>
       <r>  -41.9572    1.0000 </r>
       <r>  -41.9256    1.0000 </r>
       <r>  -41.8841    1.0000 </r>
       <r>  -41.8787    1.0000 </r>
       <r>  -41.8328    1.0000 </r>
       <r>  -41.7955    1.0000 </r>
       <r>    0.6793    1.0000 </r>
       <r>    4.2224    1.0000 </r>
       <r>    4.6500    1.0000 </r>
       <r>    5.3357    1.0000 </r>
       <r>    5.4844    1.0000 </r>
       <r>    5.8568    1.0000 </r>
       <r>    6.2928    1.0000 </r>
       <r>    6.3885    1.0000 </r>
       <r>    6.8980    1.0000 </r>
       <r>    7.6606    1.0000 </r>
       <r>    8.4486    1.0000 </r>
       <r>    8.4715    1.0000 </r>
       <r>    8.4783    1.0000 </r>
       <r>    8.9301    1.0000 </r>
       <r>    8.9919    1.0000 </r>
       <r>    9.4979    1.0000 </r>
       <r>    9.8548    1.0000 </r>
       <r>   11.4663   -0.0000 </r>
       <r>   12.9043   -0.0000 </r>
       <r>   14.0759   -0.0000 </r>
       <r>   15.6357   -0.0000 </r>
       <r>   17.2227    0.0000 </r>
       <r>   18.8727    0.0000 </r>
      </set>
      <set comment="kpoint 9">
       <r>  -42.0103    1.0000 </r>
       <r>  -41.9763    1.0000 </r>
       <r>  -41.9634    1.0000 </r>
       <r>  -41.9390    1.0000 </r>
       <r>  -41.9303    1.0000 </r>
       <r>  -41.9083    1.0000 </r>
       <r>  -41.8620    1.0000 </r>
       <r>  -41.8468    1.0000 </r>
       <r>  -41.7965    1.0000 </r>
       <r>    1.3836    1.0000 </r>
       <r>    3.5305    1.0000 </r>
       <r>    4.7165    1.0000 </r>
       <r>    5.3628    1.0000 </r>
       <r>    5.7428    1.0000 </r>
       <r>    6.0519    1.0000 </r>
       <r>    6.2576    1.0000 </r>
       <r>    6.5633    1.0000 </r>
       <r>    6.9597    1.0000 </r>
       <r>    7.7411    1.0000 </r>
       <r>    7.8617    1.0000 </r>
       <r>    7.9863    1.0000 </r>
       <r>    8.5395    1.0000 </r>
       <r>    8.5999    1.0000 </r>
       <r>    9.0031    1.0000 </r>
       <r>    9.2997    1.0000 </r>
       <r>    9.6151    1.0000 </r>
       <r>   11.5755   -0.0000 </r>
       <r>   12.2189   -0.0000 </r>
       <r>   15.1426   -0.0000 </r>
       <r>   15.3342   -0.0000 </r>
       <r>   17.6395    0.0000 </r>
       <r>   17.9021    0.0000 </r>
      </set>
      <set comment="kpoint 10">
       <r>  -42.0239    1.0000 </r>
       <r>  -41.9737    1.0000 </r>
       <r>  -41.9414    1.0000 </r>
       <r>  -41.9368    1.0000 </r>
       <r>  -41.9305    1.0000 </r>
       <r>  -41.9270    1.0000 </r>
       <r>  -41.8682    1.0000 </r>
       <r>  -41.8443    1.0000 </r>
       <r>  -41.7885    1.0000 </r>
       <r>    1.8678    1.0000 </r>
       <r>    3.9839    1.0000 </r>
       <r>    4.1297    1.0000 </r>
       <r>    5.2605    1.0000 </r>
       <r>    6.1445    1.0000 </r>
       <r>    6.2298    1.0000 </r>
       <r>    6.2310    1.0000 </r>
       <r>    6.3340    1.0000 </r>
       <r>    7.1501    1.0000 </r>
       <r>    7.5332    1.0000 </r>
       <r>    8.0290    1.0000 </r>
       <r>    8.0552    1.0000 </r>
       <r>    8.2386    1.0000 </r>
       <r>    8.3603    1.0000 </r>
       <r>    8.6696    1.0000 </r>
       <r>    9.0511    1.0000 </r>
       <r>    9.2348    1.0000 </r>
       <r>   11.5137   -0.0000 </r>
       <r>   11.6013   -0.0000 </r>
       <r>   15.4829   -0.0000 </r>
       <r>   16.4995    0.0000 </r>
       <r>   17.9300    0.0000 </r>
       <r>   18.2636    0.0000 </r>
      </set>
      <set comment="kpoint 11">
       <r>  -42.0302    1.0000 </r>
       <r>  -41.9981    1.0000 </r>
       <r>  -41.9981    1.0000 </r>
       <r>  -41.9264    1.0000 </r>
       <r>  -41.9264    1.0000 </r>
       <r>  -41.9022    1.0000 </r>
       <r>  -41.8454    1.0000 </r>
       <r>  -41.8006    1.0000 </r>
       <r>  -41.8006    1.0000 </r>
       <r>   -0.2784    1.0000 </r>
       <r>    4.2472    1.0000 </r>
       <r>    5.2101    1.0000 </r>
       <r>    5.2368    1.0000 </r>
       <r>    5.2368    1.0000 </r>
       <r>    5.6380    1.0000 </r>
       <r>    5.6380    1.0000 </r>
       <r>    6.8253    1.0000 </r>
       <r>    7.7833    1.0000 </r>
       <r>    7.7833    1.0000 </r>
       <r>    8.6777    1.0000 </r>
       <r>    8.6777    1.0000 </r>
       <r>    9.1880    1.0000 </r>
       <r>    9.1880    1.0000 </r>
       <r>    9.5161    1.0000 </r>
       <r>    9.7477    1.0000 </r>
       <r>   10.5641    0.8522 </r>
       <r>   11.5062   -0.0000 </r>
       <r>   11.5062   -0.0000 </r>
       <r>   15.1336   -0.0000 </r>
       <r>   16.2578    0.0000 </r>
       <r>   16.2578    0.0000 </r>
       <r>   17.5242    0.0000 </r>
      </set>
      <set comment="kpoint 12">
       <r>  -42.0239    1.0000 </r>
       <r>  -41.9867    1.0000 </r>
       <r>  -41.9776    1.0000 </r>
       <r>  -41.9384    1.0000 </r>
       <r>  -41.9210    1.0000 </r>
       <r>  -41.8933    1.0000 </r>
       <r>  -41.8767    1.0000 </r>
       <r>  -41.8093    1.0000 </r>
       <r>  -41.8034    1.0000 </r>
       <r>    0.3135    1.0000 </r>
       <r>    4.0839    1.0000 </r>
       <r>    4.8928    1.0000 </r>
       <r>    5.2928    1.0000 </r>
       <r>    5.6843    1.0000 </r>
       <r>    5.7799    1.0000 </r>
       <r>    5.8581    1.0000 </r>
       <r>    6.6965    1.0000 </r>
       <r>    7.3647    1.0000 </r>
       <r>    7.3835    1.0000 </r>
       <r>    8.2737    1.0000 </r>
       <r>    8.5637    1.0000 </r>
       <r>    8.6231    1.0000 </r>
       <r>    9.1197    1.0000 </r>
       <r>    9.2109    1.0000 </r>
       <r>    9.5404    1.0000 </r>
       <r>   10.4020    1.0350 </r>
       <r>   11.7508   -0.0000 </r>
       <r>   12.2972   -0.0000 </r>
       <r>   14.4520   -0.0000 </r>
       <r>   15.4765   -0.0000 </r>
       <r>   17.1948    0.0000 </r>
       <r>   17.8444    0.0000 </r>
      </set>
      <set comment="kpoint 13">
       <r>  -42.0058    1.0000 </r>
       <r>  -41.9778    1.0000 </r>
       <r>  -41.9722    1.0000 </r>
       <r>  -41.9517    1.0000 </r>
       <r>  -41.9104    1.0000 </r>
       <r>  -41.8969    1.0000 </r>
       <r>  -41.8866    1.0000 </r>
       <r>  -41.8172    1.0000 </r>
       <r>  -41.8130    1.0000 </r>
       <r>    1.0977    1.0000 </r>
       <r>    3.2018    1.0000 </r>
       <r>    4.9193    1.0000 </r>
       <r>    5.4688    1.0000 </r>
       <r>    5.8104    1.0000 </r>
       <r>    5.9064    1.0000 </r>
       <r>    6.3748    1.0000 </r>
       <r>    6.9002    1.0000 </r>
       <r>    6.9705    1.0000 </r>
       <r>    7.1143    1.0000 </r>
       <r>    8.1317    1.0000 </r>
       <r>    8.1498    1.0000 </r>
       <r>    8.3966    1.0000 </r>
       <r>    8.7355    1.0000 </r>
       <r>    9.0883    1.0000 </r>
       <r>    9.2511    1.0000 </r>
       <r>   10.2328    1.0052 </r>
       <r>   12.0419   -0.0000 </r>
       <r>   13.1229   -0.0000 </r>
       <r>   14.1295   -0.0000 </r>
       <r>   14.5393   -0.0000 </r>
       <r>   16.5527    0.0000 </r>
       <r>   18.7531    0.0000 </r>
      </set>
      <set comment="kpoint 14">
       <r>  -42.0266    1.0000 </r>
       <r>  -41.9873    1.0000 </r>
       <r>  -41.9721    1.0000 </r>
       <r>  -41.9352    1.0000 </r>
       <r>  -41.9108    1.0000 </r>
       <r>  -41.9089    1.0000 </r>
       <r>  -41.8771    1.0000 </r>
       <r>  -41.8169    1.0000 </r>
       <r>  -41.7972    1.0000 </r>
       <r>    0.8258    1.0000 </r>
       <r>    3.9974    1.0000 </r>
       <r>    4.8064    1.0000 </r>
       <r>    5.5268    1.0000 </r>
       <r>    5.6035    1.0000 </r>
       <r>    5.8341    1.0000 </r>
       <r>    6.2766    1.0000 </r>
       <r>    6.5108    1.0000 </r>
       <r>    6.8998    1.0000 </r>
       <r>    7.3385    1.0000 </r>
       <r>    8.4559    1.0000 </r>
       <r>    8.4607    1.0000 </r>
       <r>    8.5181    1.0000 </r>
       <r>    8.6185    1.0000 </r>
       <r>    8.9407    1.0000 </r>
       <r>    9.6002    1.0000 </r>
       <r>   10.2014    1.0029 </r>
       <r>   11.4471   -0.0000 </r>
       <r>   12.6385   -0.0000 </r>
       <r>   13.4093   -0.0000 </r>
       <r>   16.2431    0.0000 </r>
       <r>   16.4211    0.0000 </r>
       <r>   17.6191    0.0000 </r>
      </set>
      <set comment="kpoint 15">
       <r>  -42.0158    1.0000 </r>
       <r>  -41.9984    1.0000 </r>
       <r>  -41.9731    1.0000 </r>
       <r>  -41.9407    1.0000 </r>
       <r>  -41.9227    1.0000 </r>
       <r>  -41.8957    1.0000 </r>
       <r>  -41.8619    1.0000 </r>
       <r>  -41.8279    1.0000 </r>
       <r>  -41.7977    1.0000 </r>
       <r>    1.4428    1.0000 </r>
       <r>    3.6057    1.0000 </r>
       <r>    4.5311    1.0000 </r>
       <r>    5.7261    1.0000 </r>
       <r>    5.8001    1.0000 </r>
       <r>    6.0334    1.0000 </r>
       <r>    6.4008    1.0000 </r>
       <r>    6.5571    1.0000 </r>
       <r>    6.8943    1.0000 </r>
       <r>    7.1231    1.0000 </r>
       <r>    8.1301    1.0000 </r>
       <r>    8.2806    1.0000 </r>
       <r>    8.5073    1.0000 </r>
       <r>    8.6437    1.0000 </r>
       <r>    8.8592    1.0000 </r>
       <r>    9.2833    1.0000 </r>
       <r>    9.9515    1.0000 </r>
       <r>   11.5957   -0.0000 </r>
       <r>   12.3942   -0.0000 </r>
       <r>   13.1600   -0.0000 </r>
       <r>   15.3023   -0.0000 </r>
       <r>   17.5516    0.0000 </r>
       <r>   17.8295    0.0000 </r>
      </set>
      <set comment="kpoint 16">
       <r>  -42.0242    1.0000 </r>
       <r>  -42.0017    1.0000 </r>
       <r>  -41.9733    1.0000 </r>
       <r>  -41.9646    1.0000 </r>
       <r>  -41.9005    1.0000 </r>
       <r>  -41.8942    1.0000 </r>
       <r>  -41.8444    1.0000 </r>
       <r>  -41.8435    1.0000 </r>
       <r>  -41.7887    1.0000 </r>
       <r>    1.7892    1.0000 </r>
       <r>    3.9881    1.0000 </r>
       <r>    4.2646    1.0000 </r>
       <r>    5.5715    1.0000 </r>
       <r>    5.6801    1.0000 </r>
       <r>    6.1903    1.0000 </r>
       <r>    6.3383    1.0000 </r>
       <r>    6.9248    1.0000 </r>
       <r>    7.0515    1.0000 </r>
       <r>    7.1841    1.0000 </r>
       <r>    7.8021    1.0000 </r>
       <r>    8.3092    1.0000 </r>
       <r>    8.3327    1.0000 </r>
       <r>    8.6843    1.0000 </r>
       <r>    8.6855    1.0000 </r>
       <r>    9.2113    1.0000 </r>
       <r>    9.4716    1.0000 </r>
       <r>   11.3686   -0.0000 </r>
       <r>   11.5277   -0.0000 </r>
       <r>   13.8204   -0.0000 </r>
       <r>   16.1557    0.0000 </r>
       <r>   16.3068    0.0000 </r>
       <r>   18.4663    0.0000 </r>
      </set>
      <set comment="kpoint 17">
       <r>  -42.0363    1.0000 </r>
       <r>  -41.9914    1.0000 </r>
       <r>  -41.9914    1.0000 </r>
       <r>  -41.9518    1.0000 </r>
       <r>  -41.8948    1.0000 </r>
       <r>  -41.8948    1.0000 </r>
       <r>  -41.8699    1.0000 </r>
       <r>  -41.8019    1.0000 </r>
       <r>  -41.8019    1.0000 </r>
       <r>    1.1981    1.0000 </r>
       <r>    3.7420    1.0000 </r>
       <r>    5.1965    1.0000 </r>
       <r>    5.1965    1.0000 </r>
       <r>    5.7881    1.0000 </r>
       <r>    6.2826    1.0000 </r>
       <r>    6.2826    1.0000 </r>
       <r>    6.8032    1.0000 </r>
       <r>    6.8787    1.0000 </r>
       <r>    6.8787    1.0000 </r>
       <r>    8.0184    1.0000 </r>
       <r>    8.4675    1.0000 </r>
       <r>    8.4675    1.0000 </r>
       <r>    8.7869    1.0000 </r>
       <r>    8.7869    1.0000 </r>
       <r>    9.7739    1.0000 </r>
       <r>   10.4341    1.0334 </r>
       <r>   11.4426   -0.0000 </r>
       <r>   11.4426   -0.0000 </r>
       <r>   14.0086   -0.0000 </r>
       <r>   14.8443   -0.0000 </r>
       <r>   14.8443   -0.0000 </r>
       <r>   19.2126    0.0000 </r>
      </set>
      <set comment="kpoint 18">
       <r>  -42.0316    1.0000 </r>
       <r>  -42.0047    1.0000 </r>
       <r>  -42.0026    1.0000 </r>
       <r>  -41.9748    1.0000 </r>
       <r>  -41.8896    1.0000 </r>
       <r>  -41.8672    1.0000 </r>
       <r>  -41.8590    1.0000 </r>
       <r>  -41.8071    1.0000 </r>
       <r>  -41.7987    1.0000 </r>
       <r>    1.5532    1.0000 </r>
       <r>    3.7920    1.0000 </r>
       <r>    4.5346    1.0000 </r>
       <r>    5.5534    1.0000 </r>
       <r>    5.9681    1.0000 </r>
       <r>    6.3526    1.0000 </r>
       <r>    6.4490    1.0000 </r>
       <r>    6.8174    1.0000 </r>
       <r>    6.8275    1.0000 </r>
       <r>    7.1487    1.0000 </r>
       <r>    7.7118    1.0000 </r>
       <r>    8.3536    1.0000 </r>
       <r>    8.5426    1.0000 </r>
       <r>    8.8843    1.0000 </r>
       <r>    8.9099    1.0000 </r>
       <r>    9.4217    1.0000 </r>
       <r>   10.2342    1.0054 </r>
       <r>   11.4970   -0.0000 </r>
       <r>   11.5159   -0.0000 </r>
       <r>   12.5957   -0.0000 </r>
       <r>   14.1112   -0.0000 </r>
       <r>   15.8469   -0.0000 </r>
       <r>   17.9627    0.0000 </r>
      </set>
      <set comment="kpoint 19">
       <r>  -42.0367    1.0000 </r>
       <r>  -42.0224    1.0000 </r>
       <r>  -42.0052    1.0000 </r>
       <r>  -42.0009    1.0000 </r>
       <r>  -41.8656    1.0000 </r>
       <r>  -41.8625    1.0000 </r>
       <r>  -41.8445    1.0000 </r>
       <r>  -41.8099    1.0000 </r>
       <r>  -41.7894    1.0000 </r>
       <r>    1.6119    1.0000 </r>
       <r>    4.1427    1.0000 </r>
       <r>    4.5489    1.0000 </r>
       <r>    5.1238    1.0000 </r>
       <r>    6.3003    1.0000 </r>
       <r>    6.4201    1.0000 </r>
       <r>    6.4661    1.0000 </r>
       <r>    6.9797    1.0000 </r>
       <r>    6.9987    1.0000 </r>
       <r>    7.3413    1.0000 </r>
       <r>    7.7066    1.0000 </r>
       <r>    8.4179    1.0000 </r>
       <r>    8.4694    1.0000 </r>
       <r>    8.8114    1.0000 </r>
       <r>    9.0456    1.0000 </r>
       <r>    9.4177    1.0000 </r>
       <r>   10.0445    1.0001 </r>
       <r>   10.8891   -0.0347 </r>
       <r>   11.0629   -0.0073 </r>
       <r>   12.4507   -0.0000 </r>
       <r>   14.6491   -0.0000 </r>
       <r>   14.7144   -0.0000 </r>
       <r>   16.5258    0.0000 </r>
      </set>
      <set comment="kpoint 20">
       <r>  -42.0545    1.0000 </r>
       <r>  -42.0232    1.0000 </r>
       <r>  -42.0230    1.0000 </r>
       <r>  -42.0230    1.0000 </r>
       <r>  -41.8453    1.0000 </r>
       <r>  -41.8453    1.0000 </r>
       <r>  -41.8438    1.0000 </r>
       <r>  -41.7902    1.0000 </r>
       <r>  -41.7902    1.0000 </r>
       <r>    1.4757    1.0000 </r>
       <r>    4.4033    1.0000 </r>
       <r>    4.7229    1.0000 </r>
       <r>    4.7229    1.0000 </r>
       <r>    6.7624    1.0000 </r>
       <r>    6.8037    1.0000 </r>
       <r>    6.8037    1.0000 </r>
       <r>    7.0599    1.0000 </r>
       <r>    7.1363    1.0000 </r>
       <r>    7.1363    1.0000 </r>
       <r>    8.3150    1.0000 </r>
       <r>    8.3150    1.0000 </r>
       <r>    8.3277    1.0000 </r>
       <r>    8.8249    1.0000 </r>
       <r>    8.8249    1.0000 </r>
       <r>    9.8118    1.0000 </r>
       <r>   10.3574    1.0276 </r>
       <r>   10.4392    1.0323 </r>
       <r>   10.4392    1.0323 </r>
       <r>   11.7865   -0.0000 </r>
       <r>   14.1364   -0.0000 </r>
       <r>   14.1364   -0.0000 </r>
       <r>   15.0105   -0.0000 </r>
      </set>
     </set>
    </set>
   </array>
  </eigenvalues>
  <separator name="orbital magnetization" >
   <v name="MAGDIPOLOUT">      0.00000000      0.00000000      0.00000000</v>
  </separator>
 </calculation>
 <structure name="finalpos" >
  <crystal>
   <varray name="basis" >
    <v>       4.05787183       0.00000000       0.00000000 </v>
    <v>      -0.00000000       4.05787183      -0.00000000 </v>
    <v>      -0.00000000       0.00000000       4.05787183 </v>
   </varray>
   <i name="volume">     66.81823130 </i>
   <varray name="rec_basis" >
    <v>       0.24643459       0.00000000       0.00000000 </v>
    <v>      -0.00000000       0.24643459      -0.00000000 </v>
    <v>      -0.00000000       0.00000000       0.24643459 </v>
   </varray>
  </crystal>
  <varray name="positions" >
   <v>       0.50000000       0.00000000       0.50000000 </v>
   <v>      -0.00000000       0.50000000       0.50000000 </v>
   <v>      -0.00000000      -0.00000000      -0.00000000 </v>
   <v>       0.50000000       0.50000000      -0.00000000 </v>
  </varray>
 </structure>
</modeling>
